------------------------------------------------------------
          Invoking FHI-aims ...
          Version 190522
          Compiled on 2019/06/18 at 22:17:48 on host coe.psc.edu.

          When using FHI-aims, please cite the following reference:

          Volker Blum, Ralf Gehrke, Felix Hanke, Paula Havu,
          Ville Havu, Xinguo Ren, Karsten Reuter, and Matthias Scheffler,
          'Ab Initio Molecular Simulations with Numeric Atom-Centered Orbitals',
          Computer Physics Communications 180, 2175-2196 (2009)

          For any questions about FHI-aims, please visit the aimsclub website
          with its forums and wiki. Contributions to both the forums and the
          wiki are warmly encouraged - they are for you, and everyone is welcome there.

------------------------------------------------------------



  Date     :  20190712, Time     :  030836.488
  Time zero on CPU 1             :   0.105196744300000E+04  s.
  Internal wall clock time zero  :           332132916.488  s.

  FHI-aims created a unique identifier for this run for later identification
  aims_uuid : 7A846133-40FA-4504-A14F-F919BA0C22F1

  Using       56 parallel tasks.
  Task        0 on host d037 reporting.
  Task        1 on host d037 reporting.
  Task        2 on host d037 reporting.
  Task        3 on host d037 reporting.
  Task        4 on host d037 reporting.
  Task        5 on host d037 reporting.
  Task        6 on host d037 reporting.
  Task        7 on host d037 reporting.
  Task        8 on host d037 reporting.
  Task        9 on host d037 reporting.
  Task       10 on host d037 reporting.
  Task       11 on host d037 reporting.
  Task       12 on host d037 reporting.
  Task       13 on host d037 reporting.
  Task       14 on host d037 reporting.
  Task       15 on host d037 reporting.
  Task       16 on host d037 reporting.
  Task       17 on host d037 reporting.
  Task       18 on host d037 reporting.
  Task       19 on host d037 reporting.
  Task       20 on host d037 reporting.
  Task       21 on host d037 reporting.
  Task       22 on host d037 reporting.
  Task       23 on host d037 reporting.
  Task       24 on host d037 reporting.
  Task       25 on host d037 reporting.
  Task       26 on host d037 reporting.
  Task       27 on host d037 reporting.
  Task       28 on host d037 reporting.
  Task       29 on host d037 reporting.
  Task       30 on host d037 reporting.
  Task       31 on host d037 reporting.
  Task       32 on host d037 reporting.
  Task       33 on host d037 reporting.
  Task       34 on host d037 reporting.
  Task       35 on host d037 reporting.
  Task       36 on host d037 reporting.
  Task       37 on host d037 reporting.
  Task       38 on host d037 reporting.
  Task       39 on host d037 reporting.
  Task       40 on host d037 reporting.
  Task       41 on host d037 reporting.
  Task       42 on host d037 reporting.
  Task       43 on host d037 reporting.
  Task       44 on host d037 reporting.
  Task       45 on host d037 reporting.
  Task       46 on host d037 reporting.
  Task       47 on host d037 reporting.
  Task       48 on host d037 reporting.
  Task       49 on host d037 reporting.
  Task       50 on host d037 reporting.
  Task       51 on host d037 reporting.
  Task       52 on host d037 reporting.
  Task       53 on host d037 reporting.
  Task       54 on host d037 reporting.
  Task       55 on host d037 reporting.

  Performing system and environment tests:
  | Environment variable OMP_NUM_THREADS correctly set to 1.
  | Maximum stacksize for task 0: unlimited
  | Maximum stacksize for task 1: unlimited
  | Maximum stacksize for task 2: unlimited
  | Maximum stacksize for task 3: unlimited
  | Maximum stacksize for task 4: unlimited
  | Maximum stacksize for task 5: unlimited
  | Maximum stacksize for task 6: unlimited
  | Maximum stacksize for task 7: unlimited
  | Maximum stacksize for task 8: unlimited
  | Maximum stacksize for task 9: unlimited
  | Maximum stacksize for task 10: unlimited
  | Maximum stacksize for task 11: unlimited
  | Maximum stacksize for task 12: unlimited
  | Maximum stacksize for task 13: unlimited
  | Maximum stacksize for task 14: unlimited
  | Maximum stacksize for task 15: unlimited
  | Maximum stacksize for task 16: unlimited
  | Maximum stacksize for task 17: unlimited
  | Maximum stacksize for task 18: unlimited
  | Maximum stacksize for task 19: unlimited
  | Maximum stacksize for task 20: unlimited
  | Maximum stacksize for task 21: unlimited
  | Maximum stacksize for task 22: unlimited
  | Maximum stacksize for task 23: unlimited
  | Maximum stacksize for task 24: unlimited
  | Maximum stacksize for task 25: unlimited
  | Maximum stacksize for task 26: unlimited
  | Maximum stacksize for task 27: unlimited
  | Maximum stacksize for task 28: unlimited
  | Maximum stacksize for task 29: unlimited
  | Maximum stacksize for task 30: unlimited
  | Maximum stacksize for task 31: unlimited
  | Maximum stacksize for task 32: unlimited
  | Maximum stacksize for task 33: unlimited
  | Maximum stacksize for task 34: unlimited
  | Maximum stacksize for task 35: unlimited
  | Maximum stacksize for task 36: unlimited
  | Maximum stacksize for task 37: unlimited
  | Maximum stacksize for task 38: unlimited
  | Maximum stacksize for task 39: unlimited
  | Maximum stacksize for task 40: unlimited
  | Maximum stacksize for task 41: unlimited
  | Maximum stacksize for task 42: unlimited
  | Maximum stacksize for task 43: unlimited
  | Maximum stacksize for task 44: unlimited
  | Maximum stacksize for task 45: unlimited
  | Maximum stacksize for task 46: unlimited
  | Maximum stacksize for task 47: unlimited
  | Maximum stacksize for task 48: unlimited
  | Maximum stacksize for task 49: unlimited
  | Maximum stacksize for task 50: unlimited
  | Maximum stacksize for task 51: unlimited
  | Maximum stacksize for task 52: unlimited
  | Maximum stacksize for task 53: unlimited
  | Maximum stacksize for task 54: unlimited
  | Maximum stacksize for task 55: unlimited
  | Current stacksize for task 0: unlimited
  | Current stacksize for task 1: unlimited
  | Current stacksize for task 2: unlimited
  | Current stacksize for task 3: unlimited
  | Current stacksize for task 4: unlimited
  | Current stacksize for task 5: unlimited
  | Current stacksize for task 6: unlimited
  | Current stacksize for task 7: unlimited
  | Current stacksize for task 8: unlimited
  | Current stacksize for task 9: unlimited
  | Current stacksize for task 10: unlimited
  | Current stacksize for task 11: unlimited
  | Current stacksize for task 12: unlimited
  | Current stacksize for task 13: unlimited
  | Current stacksize for task 14: unlimited
  | Current stacksize for task 15: unlimited
  | Current stacksize for task 16: unlimited
  | Current stacksize for task 17: unlimited
  | Current stacksize for task 18: unlimited
  | Current stacksize for task 19: unlimited
  | Current stacksize for task 20: unlimited
  | Current stacksize for task 21: unlimited
  | Current stacksize for task 22: unlimited
  | Current stacksize for task 23: unlimited
  | Current stacksize for task 24: unlimited
  | Current stacksize for task 25: unlimited
  | Current stacksize for task 26: unlimited
  | Current stacksize for task 27: unlimited
  | Current stacksize for task 28: unlimited
  | Current stacksize for task 29: unlimited
  | Current stacksize for task 30: unlimited
  | Current stacksize for task 31: unlimited
  | Current stacksize for task 32: unlimited
  | Current stacksize for task 33: unlimited
  | Current stacksize for task 34: unlimited
  | Current stacksize for task 35: unlimited
  | Current stacksize for task 36: unlimited
  | Current stacksize for task 37: unlimited
  | Current stacksize for task 38: unlimited
  | Current stacksize for task 39: unlimited
  | Current stacksize for task 40: unlimited
  | Current stacksize for task 41: unlimited
  | Current stacksize for task 42: unlimited
  | Current stacksize for task 43: unlimited
  | Current stacksize for task 44: unlimited
  | Current stacksize for task 45: unlimited
  | Current stacksize for task 46: unlimited
  | Current stacksize for task 47: unlimited
  | Current stacksize for task 48: unlimited
  | Current stacksize for task 49: unlimited
  | Current stacksize for task 50: unlimited
  | Current stacksize for task 51: unlimited
  | Current stacksize for task 52: unlimited
  | Current stacksize for task 53: unlimited
  | Current stacksize for task 54: unlimited
  | Current stacksize for task 55: unlimited
  | Checking for scalapack...
  | Testing pdtran()...
  | All pdtran() tests passed.

  Obtaining array dimensions for all initial allocations:
  
  -----------------------------------------------------------------------
  Parsing control.in (first pass over file, find array dimensions only).
  The contents of control.in will be repeated verbatim below
  unless switched off by setting 'verbatim_writeout .false.' .
  in the first line of control.in .
  -----------------------------------------------------------------------
  
    #########################################################################################
    #
    #   input file control.in tight for scaling studies
    #
    #########################################################################################
    #
    #  Physical model
    #
      xc                 pbe
      spin               none
      relativistic       none
      override_relativity .true.
      charge             0.
    #
    #  SCF convergence
    #
      occupation_type    gaussian 0.1
      mixer              pulay
        n_max_pulay        10
        charge_mix_param   0.3
      sc_accuracy_rho    1E-4
      sc_accuracy_eev    1E-2
      sc_accuracy_etot   1E-4
      sc_accuracy_forces 1E-2
      sc_iter_limit      500
  
  
  #    restart restart_file
    #KS_method scalapack_old
    #KS_method serial also works
   hessian_to_restart_geometry     .false.
  
    #
    #
    #  Eigenvalue solution
      #KS_method  lapack
    #  partition_type rho_r2 ## !! use only if on BG you run into an unexpected
    #memory shortage per processor!!
  
    #
    #  accuracy / efficiency for normal scf
    #
    #  density_update_method density_matrix
    #  collect_eigenvectors .false.
    #  empty_states     3 ## This is the setting for light elements. Careful!!
    #
    #  use_local_index .true.
    ##  load_balancing .true.
    #  distributed_spline_storage .false.  ## Helps save memory but may hurt your
    #  performance. Test effect for VERY MANY CPUs.
    #
    #  For periodic boundary conditions
    #
        k_grid 1 1 1
    #    output k_eigenvalue 1
  
    #
    #  Relaxation
    #
    #  restart_relaxations .true.
     relax_geometry   bfgs 1.e-2
      vdw_correction_hirshfeld
    #  output Hirshfeld-I
    #
    ################################################################################
    ################################################################################
    #
    #  FHI-aims code project
    #  VB, Fritz-Haber Institut, 2009
    #
    #  Suggested "light" defaults for H atom (to be pasted into control.in file)
    #  Be sure to double-check any results obtained with these settings for post-processing,
    #  e.g., with the "tight" defaults and larger basis sets.
    #
    ################################################################################
      species        H
    #     global species definitions
        nucleus             1
        mass                1.00794
    #
        l_hartree           4
    #
        cut_pot             3.5  1.5  1.0
        basis_dep_cutoff    1e-4
    #
        radial_base         24 5.0
        radial_multiplier   1
        angular_grids       specified
          division   0.2421   50
          division   0.3822  110
          division   0.4799  194
          division   0.5341  302
    #      division   0.5626  434
    #      division   0.5922  590
    #      division   0.6542  770
    #      division   0.6868 1202
    #      outer_grid  770
          outer_grid  302
    ################################################################################
    #
    #  Definition of "minimal" basis
    #
    ################################################################################
    #     valence basis states
        valence      1  s   1.
    #     ion occupancy
        ion_occ      1  s   0.5
    ################################################################################
    #
    #  Suggested additional basis functions. For production calculations,
    #  uncomment them one after another (the most important basis functions are
    #  listed first).
    #
    #  Basis constructed for dimers: 0.5 A, 0.7 A, 1.0 A, 1.5 A, 2.5 A
    #
    ################################################################################
    #  "First tier" - improvements: -1014.90 meV to -62.69 meV
         hydro 2 s 2.1
         hydro 2 p 3.5
    #  "Second tier" - improvements: -12.89 meV to -1.83 meV
    #     hydro 1 s 0.85
    #     hydro 2 p 3.7
    #     hydro 2 s 1.2
    #     hydro 3 d 7
    #  "Third tier" - improvements: -0.25 meV to -0.12 meV
    #     hydro 4 f 11.2
    #     hydro 3 p 4.8
    #     hydro 4 d 9
    #     hydro 3 s 3.2
    ################################################################################
    #
    #  FHI-aims code project
    #  VB, Fritz-Haber Institut, 2009
    #
    #  Suggested "light" defaults for C atom (to be pasted into control.in file)
    #  Be sure to double-check any results obtained with these settings for post-processing,
    #  e.g., with the "tight" defaults and larger basis sets.
    #
    ################################################################################
      species        C
    #     global species definitions
        nucleus             6
        mass                12.0107
    #
        l_hartree           4
    #
        cut_pot             3.5  1.5  1.0
        basis_dep_cutoff    1e-4
    #
        radial_base         34 5.0
        radial_multiplier   1
        angular_grids specified
          division   0.3326   50
          division   0.5710  110
          division   0.7727  194
          division   0.8772  302
    #      division   0.9334  434
    #      division   0.9625  590
    #      division   0.9924  770
    #      division   1.0230  974
    #      division   1.4589 1202
    #     outer_grid  974
         outer_grid 302
    ################################################################################
    #
    #  Definition of "minimal" basis
    #
    ################################################################################
    #     valence basis states
        valence      2  s   2.
        valence      2  p   2.
    #     ion occupancy
        ion_occ      2  s   1.
        ion_occ      2  p   1.
    ################################################################################
    #
    #  Suggested additional basis functions. For production calculations,
    #  uncomment them one after another (the most important basis functions are
    #  listed first).
    #
    #  Constructed for dimers: 1.0 A, 1.25 A, 1.5 A, 2.0 A, 3.0 A
    #
    ################################################################################
    #  "First tier" - improvements: -1214.57 meV to -155.61 meV
         hydro 2 p 1.7
         hydro 3 d 6
         hydro 2 s 4.9
    #  "Second tier" - improvements: -67.75 meV to -5.23 meV
    #     hydro 4 f 9.8
    #     hydro 3 p 5.2
    #     hydro 3 s 4.3
    #     hydro 5 g 14.4
    #     hydro 3 d 6.2
    #  "Third tier" - improvements: -2.43 meV to -0.60 meV
    #     hydro 2 p 5.6
    #     hydro 2 s 1.4
    #     hydro 3 d 4.9
    #     hydro 4 f 11.2
    #  "Fourth tier" - improvements: -0.39 meV to -0.18 meV
    #     hydro 2 p 2.1
    #     hydro 5 g 16.4
    #     hydro 4 d 13.2
    #     hydro 3 s 13.6
    #     hydro 4 f 17.6
    #  Further basis functions - improvements: -0.08 meV and below
    #     hydro 3 s 2
    #     hydro 3 p 6
    #     hydro 4 d 20
    ################################################################################
    #
    #  FHI-aims code project
    #  VB, Fritz-Haber Institut, 2009
    #
    #  Suggested "light" defaults for N atom (to be pasted into control.in file)
    #  Be sure to double-check any results obtained with these settings for post-processing,
    #  e.g., with the "tight" defaults and larger basis sets.
    #
    ################################################################################
      species        N
    #     global species definitions
        nucleus             7
        mass                14.0067
    #
        l_hartree           4
    #
        cut_pot             3.5  1.5  1.0
        basis_dep_cutoff    1e-4
    #
        radial_base         35 5.0
        radial_multiplier   1
        angular_grids       specified
          division   0.2599   50
          division   0.4601  110
          division   0.5885  194
          division   0.6503  302
    #      division   0.6939  434
    #      division   0.7396  590
    #      division   0.7632  770
    #      division   0.8122  974
    #      division   1.1604 1202
    #      outer_grid  974
          outer_grid  302
    ################################################################################
    #
    #  Definition of "minimal" basis
    #
    ################################################################################
    #     valence basis states
        valence      2  s   2.
        valence      2  p   3.
    #     ion occupancy
        ion_occ      2  s   1.
        ion_occ      2  p   2.
    ################################################################################
    #
    #  Suggested additional basis functions. For production calculations,
    #  uncomment them one after another (the most important basis functions are
    #  listed first).
    #
    #  Constructed for dimers: 1.0 A, 1.1 A, 1.5 A, 2.0 A, 3.0 A
    #
    ################################################################################
    #  "First tier" - improvements: -1193.42 meV to -220.60 meV
         hydro 2 p 1.8
         hydro 3 d 6.8
         hydro 3 s 5.8
    #  "Second tier" - improvements: -80.21 meV to -6.86 meV
    #     hydro 4 f 10.8
    #     hydro 3 p 5.8
    #     hydro 1 s 0.8
    #     hydro 5 g 16
    #     hydro 3 d 4.9
    #  "Third tier" - improvements: -4.29 meV to -0.53 meV
    #     hydro 3 s 16
    #     ionic 2 p auto
    #     hydro 3 d 6.6
    #     hydro 4 f 11.6
    #  "Fourth tier" - improvements: -0.75 meV to -0.25 meV
    #     hydro 2 p 4.5
    #     hydro 2 s 2.4
    #     hydro 5 g 14.4
    #     hydro 4 d 14.4
    #     hydro 4 f 16.8
    # Further basis functions - -0.21 meV and below
    #     hydro 3 p 14.8
    #     hydro 3 s 4.4
    #     hydro 3 d 19.6
    #     hydro 5 g 12.8
    ################################################################################
    #
    #  FHI-aims code project
    #  VB, Fritz-Haber Institut, 2009
    #
    #  Suggested "light" defaults for O atom (to be pasted into control.in file)
    #  Be sure to double-check any results obtained with these settings for post-processing,
    #  e.g., with the "tight" defaults and larger basis sets.
    #
    ################################################################################
      species        O
    #     global species definitions
        nucleus             8
        mass                15.9994
    #
        l_hartree           4
    #
        cut_pot             3.5  1.5  1.0
        basis_dep_cutoff    1e-4
    #
        radial_base         36 5.0
        radial_multiplier   1
         angular_grids specified
          division   0.2659   50
          division   0.4451  110
          division   0.6052  194
          division   0.7543  302
    #      division   0.8014  434
    #      division   0.8507  590
    #      division   0.8762  770
    #      division   0.9023  974
    #      division   1.2339 1202
    #      outer_grid 974
          outer_grid 302
    ################################################################################
    #
    #  Definition of "minimal" basis
    #
    ################################################################################
    #     valence basis states
        valence      2  s   2.
        valence      2  p   4.
    #     ion occupancy
        ion_occ      2  s   1.
        ion_occ      2  p   3.
    ################################################################################
    #
    #  Suggested additional basis functions. For production calculations,
    #  uncomment them one after another (the most important basis functions are
    #  listed first).
    #
    #  Constructed for dimers: 1.0 A, 1.208 A, 1.5 A, 2.0 A, 3.0 A
    #
    ################################################################################
    #  "First tier" - improvements: -699.05 meV to -159.38 meV
         hydro 2 p 1.8
         hydro 3 d 7.6
         hydro 3 s 6.4
    #  "Second tier" - improvements: -49.91 meV to -5.39 meV
    #     hydro 4 f 11.6
    #     hydro 3 p 6.2
    #     hydro 3 d 5.6
    #     hydro 5 g 17.6
    #     hydro 1 s 0.75
    #  "Third tier" - improvements: -2.83 meV to -0.50 meV
    #     ionic 2 p auto
    #     hydro 4 f 10.8
    #     hydro 4 d 4.7
    #     hydro 2 s 6.8
    #  "Fourth tier" - improvements: -0.40 meV to -0.12 meV
    #     hydro 3 p 5
    #     hydro 3 s 3.3
    #     hydro 5 g 15.6
    #     hydro 4 f 17.6
    #     hydro 4 d 14
    # Further basis functions - -0.08 meV and below
    #     hydro 3 s 2.1
    #     hydro 4 d 11.6
    #     hydro 3 p 16
    #     hydro 2 s 17.2
    ################################################################################
    #
    #  FHI-aims code project
    #  VB, Fritz-Haber Institut, 2009
    #
    #  Suggested "light" defaults for S atom (to be pasted into control.in file)
    #  Be sure to double-check any results obtained with these settings for post-processing,
    #  e.g., with the "tight" defaults and larger basis sets.
    #
    ################################################################################
      species        S
    #     global species definitions
        nucleus             16
        mass                32.065
    #
        l_hartree           4
    #
        cut_pot             3.5          1.5  1.0
        basis_dep_cutoff    1e-4
    #
        radial_base         44 5.0
        radial_multiplier   1
        angular_grids       specified
          division   0.4665  110
          division   0.5810  194
          division   0.7139  302
    #      division   0.8274  434
    #      division   0.9105  590
    #      division   1.0975  770
    #      division   1.2028  974
    #      outer_grid  974
          outer_grid  302
    ################################################################################
    #
    #  Definition of "minimal" basis
    #
    ################################################################################
    #     valence basis states
        valence      3  s   2.
        valence      3  p   4.
    #     ion occupancy
        ion_occ      3  s   1.
        ion_occ      3  p   3.
    ################################################################################
    #
    #  Suggested additional basis functions. For production calculations,
    #  uncomment them one after another (the most important basis functions are
    #  listed first).
    #
    #  Constructed for dimers: 1.6 A, 1.9 A, 2.5 A, 3.25 A, 4.0 A
    #
    ################################################################################
    #  "First tier" - improvements: -652.81 meV to -45.53 meV
         ionic 3 d auto
         hydro 2 p 1.8
    #     hydro 4 f 7
         ionic 3 s auto
    #  "Second tier" - improvements: -30.20 meV to -1.74 meV
    #     hydro 4 d 6.2
    #     hydro 5 g 10.8
    #     hydro 4 p 4.9
    #     hydro 5 f 10
    #     hydro 1 s 0.8
    #  "Third tier" - improvements: -1.04 meV to -0.20 meV
    #     hydro 3 d 3.9
    #     hydro 3 d 2.7
    #     hydro 5 g 12
    #     hydro 4 p 10.4
    #     hydro 5 f 12.4
    #     hydro 2 s 1.9
    #  "Fourth tier" - improvements: -0.35 meV to -0.06 meV
    #     hydro 4 d 10.4
    #     hydro 4 p 7.2
    #     hydro 4 d 10
    #     hydro 5 g 19.2
    #     hydro 4 s 12
  
  
  -----------------------------------------------------------------------
  Completed first pass over input file control.in .
  -----------------------------------------------------------------------
  
  
  -----------------------------------------------------------------------
  Parsing geometry.in (first pass over file, find array dimensions only).
  The contents of geometry.in will be repeated verbatim below
  unless switched off by setting 'verbatim_writeout .false.' .
  in the first line of geometry.in .
  -----------------------------------------------------------------------
  
  lattice_vector 5.151736 0.0 0.0
  lattice_vector 0.0 10.618759 0.0
  lattice_vector -5.032084 0.0 4.862758
  atom 1.11665 4.20560 4.55712 O
  atom -0.05203 4.17384 3.81801 C
  atom -0.84307 4.81156 4.19133 H
  atom 0.12970 3.31172 2.78333 C
  atom -0.18405 2.50569 1.53137 C
  atom -0.37529 3.09605 0.62597 H
  atom -0.98079 1.75823 1.63801 H
  atom 1.28772 1.92376 1.64146 C
  atom 1.94404 2.17669 0.79867 H
  atom 1.33899 0.84103 1.81441 H
  atom 1.44927 2.79134 2.88123 C
  atom 2.03389 3.35135 3.97277 C
  atom 2.99143 3.29959 4.47502 H
  atom 3.63269 6.41316 2.12574 O
  atom 2.46401 6.44491 1.38663 C
  atom 1.67297 5.80719 1.75995 H
  atom 2.64575 7.30704 0.35195 C
  atom 2.33199 8.11306 -0.90001 C
  atom 2.14075 7.52271 -1.80541 H
  atom 1.53526 8.86053 -0.79337 H
  atom 3.80377 8.69500 -0.78992 C
  atom 4.46008 8.44207 -1.63270 H
  atom 3.85503 9.77773 -0.61697 H
  atom 3.96531 7.82742 0.44985 C
  atom 4.54993 7.26741 1.54139 C
  atom 5.50747 7.31917 2.04364 H
  
  -----------------------------------------------------------------------
  Completed first pass over input file geometry.in .
  -----------------------------------------------------------------------
  

  Basic array size parameters:
  | Number of species                 :        5
  | Number of atoms                   :       26
  | Number of lattice vectors         :        3
  | Max. basis fn. angular momentum   :        2
  | Max. atomic/ionic basis occupied n:        3
  | Max. number of basis fn. types    :        3
  | Max. radial fns per species/type  :        5
  | Max. logarithmic grid size        :     1357
  | Max. radial integration grid size :       44
  | Max. angular integration grid size:      302
  | Max. angular grid division number :        8
  | Radial grid for Hartree potential :     1357
  | Number of spin channels           :        1

------------------------------------------------------------
          Reading file control.in.
------------------------------------------------------------
  XC: Using PBE gradient-corrected functionals.
  Spin treatment: No spin polarisation.
  Non-relativistic treatment of kinetic energy.
  override_relativity: Explicitly overriding any built-in relativity checks.
  If you use this flag, you should really know what you are doing.
  Charge =   0.000000E+00: Neutral system requested explicitly.
  Occupation type: Gaussian broadening, width =   0.100000E+00 eV.
  Using pulay charge density mixing.
  Pulay mixing - number of memorized iterations:   10
  Charge density mixing - mixing parameter:     0.3000
  Convergence accuracy of self-consistent charge density:  0.1000E-03
  Convergence accuracy of sum of eigenvalues:  0.1000E-01
  Convergence accuracy of total energy:  0.1000E-03
  Convergence accuracy of forces:  0.1000E-01
  Maximum number of s.-c. iterations  :   500
  Hessian information is explicitly not written to geometry.in.next_step for relaxation restart.
  Found k-point grid:         1         1         1
  Geometry relaxation: Modified BFGS - TRM (trust radius method) for lattice optimization.
  Convergence accuracy for geometry relaxation: Maximum force <   0.100000E-01 eV/A.
 
  Reading configuration options for species H                   .
  | Found nuclear charge :   1.0000
  | Found atomic mass :    1.00794000000000      amu
  | Found l_max for Hartree potential  :   4
  | Found cutoff potl. onset [A], width [A], scale factor :    3.50000    1.50000    1.00000
  | Threshold for basis-dependent cutoff potential is   0.100000E-03
  | Found data for basic radial integration grid :    24 points, outermost radius =    5.000 A
  | Found multiplier for basic radial grid :   1
  | Found angular grid specification: user-specified.
  | Specified grid contains     5 separate shells.
  | Check grid settings after all constraints further below.
  | Found free-atom valence shell :  1 s   1.000
  | Found free-ion valence shell :  1 s   0.500
  | Found hydrogenic basis function :  2 s   2.100
  | Found hydrogenic basis function :  2 p   3.500
  Species H                   : Missing cutoff potential type.
  Defaulting to exp(1/x)/(1-x)^2 type cutoff potential.
  Species H : No 'logarithmic' tag. Using default grid for free atom:
  | Default logarithmic grid data [bohr] : 0.1000E-03 0.1000E+03 0.1012E+01
  Species H : On-site basis accuracy parameter (for Gram-Schmidt orthonormalisation) not specified.
  Using default value basis_acc =  0.1000000E-03.
  Species H                   : Using default innermost maximum threshold i_radial=  2 for radial functions.
  Species H                   : Default cutoff onset for free atom density etc. : 0.35000000E+01 AA.
  Species H                   : Basic radial grid will be enhanced according to radial_multiplier =   1, to contain    24 grid points.
 
  Reading configuration options for species C                   .
  | Found nuclear charge :   6.0000
  | Found atomic mass :    12.0107000000000      amu
  | Found l_max for Hartree potential  :   4
  | Found cutoff potl. onset [A], width [A], scale factor :    3.50000    1.50000    1.00000
  | Threshold for basis-dependent cutoff potential is   0.100000E-03
  | Found data for basic radial integration grid :    34 points, outermost radius =    5.000 A
  | Found multiplier for basic radial grid :   1
  | Found angular grid specification: user-specified.
  | Specified grid contains     5 separate shells.
  | Check grid settings after all constraints further below.
  | Found free-atom valence shell :  2 s   2.000
  | Found free-atom valence shell :  2 p   2.000
  | Found free-ion valence shell :  2 s   1.000
  | Found free-ion valence shell :  2 p   1.000
  | Found hydrogenic basis function :  2 p   1.700
  | Found hydrogenic basis function :  3 d   6.000
  | Found hydrogenic basis function :  2 s   4.900
  Species C                   : Missing cutoff potential type.
  Defaulting to exp(1/x)/(1-x)^2 type cutoff potential.
  Species C : No 'logarithmic' tag. Using default grid for free atom:
  | Default logarithmic grid data [bohr] : 0.1000E-03 0.1000E+03 0.1012E+01
  Species C : On-site basis accuracy parameter (for Gram-Schmidt orthonormalisation) not specified.
  Using default value basis_acc =  0.1000000E-03.
  Species C                   : Using default innermost maximum threshold i_radial=  2 for radial functions.
  Species C                   : Default cutoff onset for free atom density etc. : 0.35000000E+01 AA.
  Species C                   : Basic radial grid will be enhanced according to radial_multiplier =   1, to contain    34 grid points.
 
  Reading configuration options for species N                   .
  | Found nuclear charge :   7.0000
  | Found atomic mass :    14.0067000000000      amu
  | Found l_max for Hartree potential  :   4
  | Found cutoff potl. onset [A], width [A], scale factor :    3.50000    1.50000    1.00000
  | Threshold for basis-dependent cutoff potential is   0.100000E-03
  | Found data for basic radial integration grid :    35 points, outermost radius =    5.000 A
  | Found multiplier for basic radial grid :   1
  | Found angular grid specification: user-specified.
  | Specified grid contains     5 separate shells.
  | Check grid settings after all constraints further below.
  | Found free-atom valence shell :  2 s   2.000
  | Found free-atom valence shell :  2 p   3.000
  | Found free-ion valence shell :  2 s   1.000
  | Found free-ion valence shell :  2 p   2.000
  | Found hydrogenic basis function :  2 p   1.800
  | Found hydrogenic basis function :  3 d   6.800
  | Found hydrogenic basis function :  3 s   5.800
  Species N                   : Missing cutoff potential type.
  Defaulting to exp(1/x)/(1-x)^2 type cutoff potential.
  Species N : No 'logarithmic' tag. Using default grid for free atom:
  | Default logarithmic grid data [bohr] : 0.1000E-03 0.1000E+03 0.1012E+01
  Species N : On-site basis accuracy parameter (for Gram-Schmidt orthonormalisation) not specified.
  Using default value basis_acc =  0.1000000E-03.
  Species N                   : Using default innermost maximum threshold i_radial=  2 for radial functions.
  Species N                   : Default cutoff onset for free atom density etc. : 0.35000000E+01 AA.
  Species N                   : Basic radial grid will be enhanced according to radial_multiplier =   1, to contain    35 grid points.
 
  Reading configuration options for species O                   .
  | Found nuclear charge :   8.0000
  | Found atomic mass :    15.9994000000000      amu
  | Found l_max for Hartree potential  :   4
  | Found cutoff potl. onset [A], width [A], scale factor :    3.50000    1.50000    1.00000
  | Threshold for basis-dependent cutoff potential is   0.100000E-03
  | Found data for basic radial integration grid :    36 points, outermost radius =    5.000 A
  | Found multiplier for basic radial grid :   1
  | Found angular grid specification: user-specified.
  | Specified grid contains     5 separate shells.
  | Check grid settings after all constraints further below.
  | Found free-atom valence shell :  2 s   2.000
  | Found free-atom valence shell :  2 p   4.000
  | Found free-ion valence shell :  2 s   1.000
  | Found free-ion valence shell :  2 p   3.000
  | Found hydrogenic basis function :  2 p   1.800
  | Found hydrogenic basis function :  3 d   7.600
  | Found hydrogenic basis function :  3 s   6.400
  Species O                   : Missing cutoff potential type.
  Defaulting to exp(1/x)/(1-x)^2 type cutoff potential.
  Species O : No 'logarithmic' tag. Using default grid for free atom:
  | Default logarithmic grid data [bohr] : 0.1000E-03 0.1000E+03 0.1012E+01
  Species O : On-site basis accuracy parameter (for Gram-Schmidt orthonormalisation) not specified.
  Using default value basis_acc =  0.1000000E-03.
  Species O                   : Using default innermost maximum threshold i_radial=  2 for radial functions.
  Species O                   : Default cutoff onset for free atom density etc. : 0.35000000E+01 AA.
  Species O                   : Basic radial grid will be enhanced according to radial_multiplier =   1, to contain    36 grid points.
 
  Reading configuration options for species S                   .
  | Found nuclear charge :  16.0000
  | Found atomic mass :    32.0650000000000      amu
  | Found l_max for Hartree potential  :   4
  | Found cutoff potl. onset [A], width [A], scale factor :    3.50000    1.50000    1.00000
  | Threshold for basis-dependent cutoff potential is   0.100000E-03
  | Found data for basic radial integration grid :    44 points, outermost radius =    5.000 A
  | Found multiplier for basic radial grid :   1
  | Found angular grid specification: user-specified.
  | Specified grid contains     4 separate shells.
  | Check grid settings after all constraints further below.
  | Found free-atom valence shell :  3 s   2.000
  | Found free-atom valence shell :  3 p   4.000
  | Found free-ion valence shell :  3 s   1.000
  | Found free-ion valence shell :  3 p   3.000
  | Found ionic basis function :  3 d , default cutoff radius.
  | Found hydrogenic basis function :  2 p   1.800
  | Found ionic basis function :  3 s , default cutoff radius.
  Species S                   : Missing cutoff potential type.
  Defaulting to exp(1/x)/(1-x)^2 type cutoff potential.
  Species S : No 'logarithmic' tag. Using default grid for free atom:
  | Default logarithmic grid data [bohr] : 0.1000E-03 0.1000E+03 0.1012E+01
  | Will include ionic basis functions of  2.0-fold positive S                    ion.
  Species S : On-site basis accuracy parameter (for Gram-Schmidt orthonormalisation) not specified.
  Using default value basis_acc =  0.1000000E-03.
  Species S                   : Using default innermost maximum threshold i_radial=  2 for radial functions.
  Species S                   : Default cutoff onset for free atom density etc. : 0.35000000E+01 AA.
  Species S                   : Basic radial grid will be enhanced according to radial_multiplier =   1, to contain    44 grid points.
 
  Finished reading input file 'control.in'. Consistency checks are next.
 
  MPI_IN_PLACE appears to work with this MPI implementation.
  | Keeping use_mpi_in_place .true. (see manual).
  Target number of points in a grid batch is not set. Defaulting to  100
  Method for grid partitioning is not set. Defaulting to parallel hash+maxmin partitioning.
  Batch size limit is not set. Defaulting to    200
  By default, will store active basis functions for each batch.
  If in need of memory, prune_basis_once .false. can be used to disable this option.
  communication_type for Hartree potential was not specified.
  Defaulting to calc_hartree .
  Pulay mixer: Number of initial linear mixing iterations not set.
  Defaulting to    0 iterations.
  Work space size for distributed Hartree potential not set.
  Defaulting to   0.200000E+03 MB.
  Algorithm-dependent basis array size parameters:
  | n_max_pulay                         :       10
  Presetting      1001 iterations before the initial mixing cycle
  is restarted anyway using the sc_init_iter criterion / keyword.
  Presetting a factor      1.000 between actual scf density residual
  and density convergence criterion sc_accuracy_rho below which sc_init_iter
  takes no effect.
  No maximum number of relaxation steps, defaulting to     1000
  Default initial Hessian is Lindh matrix (thres = 15.00) plus  0.200000E+01 eV/A^2 times unity.
  No maximum energy tolerance for TRM/BFGS moves, defaulting to   0.100000E-02
  Maximum energy tolerance by which TRM/BFGS trajectory may increase over multiple steps:   0.300000E-02
  No harmonic length scale. Defaulting to   0.250000E-01 A.
  No trust radius initializer. Defaulting to   0.200000E+00 A.
  Handling of forces: Unphysical translation and rotation will be removed from forces.
  No accuracy limit for integral partition fn. given. Defaulting to  0.1000E-14.
  No threshold value for u(r) in integrations given. Defaulting to  0.1000E-05.
  No accuracy for occupation numbers given. Defaulting to  0.1000E-12.
  No threshold value for occupation numbers given. Defaulting to  0.0000E+00.
  No accuracy for fermi level given. Defaulting to  0.1000E-19.
  Maximum # of iterations to find E_F not set. Defaulting to  200.
  Preferred method for the eigenvalue solver ('KS_method') not specified in 'control.in'.
  Calling BLACS routine to test compilation state
  Since ScaLAPACK support is enabled, defaulting to ELPA (via ELSI).
  Will not use alltoall communication since running on < 1024 CPUs.
  Threshold for basis singularities not set.
  Default threshold for basis singularities:  0.1000E-04
  partition_type (choice of integration weights) for integrals was not specified.
  | Using a version of the partition function of Stratmann and coworkers ('stratmann_sparse').
  | At each grid point, the set of atoms used to build the partition table is smoothly restricted to
  | only those atoms whose free-atom density would be non-zero at that grid point.
  Partitioning for Hartree potential was not defined. Using partition_type for integrals.
  | Adjusted default value of keyword multip_moments_threshold to:       0.10000000E-11
  | This value may affect high angular momentum components of the Hartree potential in periodic systems.
  Angular momentum expansion for Kerker preconditioner not set explicitly.
  | Using default value of   0
  No explicit requirement for turning off preconditioner.
  | By default, it will be turned off when the charge convergence reaches
  | sc_accuracy_rho  =   0.100000E-03
  | sc_accuracy_eev  =   0.100000E-01
  | sc_accuracy_etot =   0.100000E-03
  No special mixing parameter while Kerker preconditioner is on.
  Using default: charge_mix_param =     0.3000.
  No q(lm)/r^(l+1) cutoff set for long-range Hartree potential.
  | Using default value of  0.100000E-09 .
  | Verify using the multipole_threshold keyword.
  Defaulting to new monopole extrapolation.
  Density update method: automatic selection selected.
  Using density matrix based charge density update.
  Using density matrix based charge density update.
  Using packed matrix style: index .
  Geometry relaxation: A file "geometry.in.next_step" is written out by default after each step.
  | This file contains the geometry of the current relaxation step as well as
  | the current Hessian matrix needed to restart the relaxation algorithm.
  | If you do not want part or all of this information, use the keywords
  | "write_restart_geometry" or "hessian_to_restart_geometry" to switch the output off.
  Defaulting to use time-reversal symmetry for k-point grid.
  Using the following vdw_convergence_threshold for supercell sums
  over the Tkatchenko-Scheffler correction:  0.100000E-05 eV.
------------------------------------------------------------


------------------------------------------------------------
          Reading geometry description geometry.in.
------------------------------------------------------------
  Input structure read successfully.
  The structure contains       26 atoms,  and a total of        100.000 electrons.

  Input geometry:
  | Unit cell:
  |        5.15173600        0.00000000        0.00000000
  |        0.00000000       10.61875900        0.00000000
  |       -5.03208400        0.00000000        4.86275800
  | Atomic structure:
  |       Atom                x [A]            y [A]            z [A]
  |    1: Species O             1.11665000        4.20560000        4.55712000
  |    2: Species C            -0.05203000        4.17384000        3.81801000
  |    3: Species H            -0.84307000        4.81156000        4.19133000
  |    4: Species C             0.12970000        3.31172000        2.78333000
  |    5: Species C            -0.18405000        2.50569000        1.53137000
  |    6: Species H            -0.37529000        3.09605000        0.62597000
  |    7: Species H            -0.98079000        1.75823000        1.63801000
  |    8: Species C             1.28772000        1.92376000        1.64146000
  |    9: Species H             1.94404000        2.17669000        0.79867000
  |   10: Species H             1.33899000        0.84103000        1.81441000
  |   11: Species C             1.44927000        2.79134000        2.88123000
  |   12: Species C             2.03389000        3.35135000        3.97277000
  |   13: Species H             2.99143000        3.29959000        4.47502000
  |   14: Species O             3.63269000        6.41316000        2.12574000
  |   15: Species C             2.46401000        6.44491000        1.38663000
  |   16: Species H             1.67297000        5.80719000        1.75995000
  |   17: Species C             2.64575000        7.30704000        0.35195000
  |   18: Species C             2.33199000        8.11306000       -0.90001000
  |   19: Species H             2.14075000        7.52271000       -1.80541000
  |   20: Species H             1.53526000        8.86053000       -0.79337000
  |   21: Species C             3.80377000        8.69500000       -0.78992000
  |   22: Species H             4.46008000        8.44207000       -1.63270000
  |   23: Species H             3.85503000        9.77773000       -0.61697000
  |   24: Species C             3.96531000        7.82742000        0.44985000
  |   25: Species C             4.54993000        7.26741000        1.54139000
  |   26: Species H             5.50747000        7.31917000        2.04364000

  Lattice parameters for 3D lattice (in Angstroms) :     5.151736   10.618759    6.997734
  Angle(s) between unit vectors (in degrees)       :    90.000000  135.980381   90.000000

  |

  | The smallest distance between any two atoms is         1.08249661 AA.
  |
  | The first atom of this pair is atom number                      2 .
  | The second atom of this pair is atom number                     3 .
  | Wigner-Seitz cell of the first atom image           0     0     0 .
  | (The Wigner-Seitz cell of the second atom is 0 0 0  by definition.)

  Symmetry information by spglib:
  | Precision set to  0.1E-04
  | Number of Operations  : 1
  | Space group           : 1
  | International         : P1  vU
  | Schoenflies           : C1^1

  Quantities derived from the lattice vectors:
  | Reciprocal lattice vector 1:  1.219625  0.000000  1.262093
  | Reciprocal lattice vector 2:  0.000000  0.591706  0.000000
  | Reciprocal lattice vector 3:  0.000000  0.000000  1.292103
  | Unit cell volume                               :   0.266017E+03  A^3

  Range separation radius for Ewald summation (hartree_convergence_parameter):      3.00407344 bohr.

  Fractional coordinates:
                         L1                L2                L3
       atom_frac         1.13213359        0.39605381        0.93714719  O
       atom_frac         0.75681806        0.39306288        0.78515320  C
       atom_frac         0.67825801        0.45311886        0.86192445  H
       atom_frac         0.58425903        0.31187449        0.57237683  C
       atom_frac         0.27187802        0.23596825        0.31491800  C
       atom_frac         0.05289031        0.29156420        0.12872736  H
       atom_frac         0.13864397        0.16557773        0.33684794  H
       atom_frac         0.57967591        0.18116618        0.33755741  C
       atom_frac         0.53778386        0.20498535        0.16424219  H
       atom_frac         0.62436808        0.07920229        0.37312365  H
       atom_frac         0.86006489        0.26286876        0.59250944  C
       atom_frac         1.19280098        0.31560656        0.81697876  C
       atom_frac         1.47955458        0.31073217        0.92026377  H
       atom_frac         1.13213300        0.60394628        0.43714699  O
       atom_frac         0.75681747        0.60693627        0.28515299  C
       atom_frac         0.67825742        0.54688029        0.36192424  H
       atom_frac         0.58426038        0.68812561        0.07237662  C
       atom_frac         0.27187744        0.76403090       -0.18508221  C
       atom_frac         0.05288972        0.70843589       -0.37127285  H
       atom_frac         0.13864532        0.83442237       -0.16315227  H
       atom_frac         0.57967726        0.81883391       -0.16244279  C
       atom_frac         0.53778528        0.79501475       -0.33575596  H
       atom_frac         0.62436749        0.92079781       -0.12687656  H
       atom_frac         0.86006430        0.73713134        0.09250923  C
       atom_frac         1.19280039        0.68439353        0.31697855  C
       atom_frac         1.47955399        0.68926793        0.42026356  H

  Number of empty states per atom not set in control.in - providing a guess from actual geometry.
  | Total number of empty states used during s.c.f. cycle:       60
  If you use a very high smearing, use empty_states (per atom!) in control.in to increase this value.

  Structure-dependent array size parameters: 
  | Maximum number of distinct radial functions  :       29
  | Maximum number of basis functions            :      256
  | Number of Kohn-Sham states (occupied + empty):      110
------------------------------------------------------------

------------------------------------------------------------
          Preparing all fixed parts of the calculation.
------------------------------------------------------------
  Determining machine precision:
    2.225073858507201E-308
  Setting up grids for atomic and cluster calculations.

  Creating wave function, potential, and density for free atoms.

  Species: H

  List of occupied orbitals and eigenvalues:
    n    l              occ      energy [Ha]    energy [eV]
    1    0           1.0000        -0.237589        -6.4651


  Species: C

  List of occupied orbitals and eigenvalues:
    n    l              occ      energy [Ha]    energy [eV]
    1    0           2.0000       -10.038835      -273.1706
    2    0           2.0000        -0.502696       -13.6791
    2    1           2.0000        -0.191971        -5.2238


  Species: N

  List of occupied orbitals and eigenvalues:
    n    l              occ      energy [Ha]    energy [eV]
    1    0           2.0000       -14.128000      -384.4424
    2    0           2.0000        -0.681077       -18.5330
    2    1           3.0000        -0.259788        -7.0692


  Species: O

  List of occupied orbitals and eigenvalues:
    n    l              occ      energy [Ha]    energy [eV]
    1    0           2.0000       -18.898188      -514.2459
    2    0           2.0000        -0.878505       -23.9053
    2    1           4.0000        -0.331779        -9.0282


  Species: S

  List of occupied orbitals and eigenvalues:
    n    l              occ      energy [Ha]    energy [eV]
    1    0           2.0000       -88.105825     -2397.4815
    2    0           2.0000        -7.730144      -210.3479
    3    0           2.0000        -0.627748       -17.0819
    2    1           6.0000        -5.747971      -156.4103
    3    1           4.0000        -0.255786        -6.9603

  Creating fixed part of basis set: Ionic, confined, hydrogenic.
 
  H                    hydrogenic:
 
  List of hydrogenic basis orbitals: 
    n    l      effective z      eigenvalue [eV]  inner max. [A]     outer max. [A]     outer radius [A]   
    2    0         2.100000       -14.9728           0.193243           1.317208           4.583499
    2    1         3.500000       -41.6669           0.602369           0.602369           3.723403
 
 
  C                    hydrogenic:
 
  List of hydrogenic basis orbitals: 
    n    l      effective z      eigenvalue [eV]  inner max. [A]     outer max. [A]     outer radius [A]   
    2    1         1.700000        -9.7616           1.230570           1.230570           4.607917
    3    2         6.000000       -54.4224           0.792453           0.792453           3.883070
    2    0         4.900000       -81.6679           0.082559           0.562749           3.078220
 
 
  N                    hydrogenic:
 
  List of hydrogenic basis orbitals: 
    n    l      effective z      eigenvalue [eV]  inner max. [A]     outer max. [A]     outer radius [A]   
    2    1         1.800000       -10.9749           1.177451           1.177451           4.573712
    3    2         6.800000       -69.9026           0.704619           0.704619           3.538137
    3    0         5.800000       -50.8545           0.067388           1.191934           4.250239
 
 
  O                    hydrogenic:
 
  List of hydrogenic basis orbitals: 
    n    l      effective z      eigenvalue [eV]  inner max. [A]     outer max. [A]     outer radius [A]   
    2    1         1.800000       -10.9749           1.164242           1.164242           4.578029
    3    2         7.600000       -87.3180           0.624125           0.624125           3.251020
    3    0         6.400000       -61.9207           0.061167           1.081902           4.001998
 
 
  S                    ion:

  List of free ionic orbitals and eigenvalues:
    n    l      energy [Ha]    energy [eV]
    1    0       -89.127201     -2425.2745
    2    0        -8.724378      -237.4024
    3    0        -1.464668       -39.8556
    2    1        -6.744348      -183.5230
    3    1        -1.048520       -28.5317


  List of ionic basis orbitals and eigenvalues:
    n    l      energy [Ha]    energy [eV]    outer radius [A]
    3    2        -0.496135       -13.5005       4.539062
    3    0        -1.464653       -39.8552       3.642502

 
  S                    hydrogenic:
 
  List of hydrogenic basis orbitals: 
    n    l      effective z      eigenvalue [eV]  inner max. [A]     outer max. [A]     outer radius [A]   
    2    1         1.800000       -10.9749           1.168531           1.168531           4.594893
 

  Adding cutoff potential to free-atom effective potential.
  Creating atomic-like basis functions for current effective potential.

  Species H                   :

  List of atomic basis orbitals and eigenvalues:
    n    l      energy [Ha]    energy [eV]    outer radius [A]
    1    0        -0.237589        -6.4651       4.527807


  Species C                   :

  List of atomic basis orbitals and eigenvalues:
    n    l      energy [Ha]    energy [eV]    outer radius [A]
    1    0       -10.038835      -273.1706       1.934409
    2    0        -0.502696       -13.6791       4.496620
    2    1        -0.191971        -5.2238       4.551928


  Species N                   :

  List of atomic basis orbitals and eigenvalues:
    n    l      energy [Ha]    energy [eV]    outer radius [A]
    1    0       -14.128000      -384.4424       1.637919
    2    0        -0.681077       -18.5330       4.463241
    2    1        -0.259788        -7.0692       4.518138


  Species O                   :

  List of atomic basis orbitals and eigenvalues:
    n    l      energy [Ha]    energy [eV]    outer radius [A]
    1    0       -18.898188      -514.2459       1.415765
    2    0        -0.878505       -23.9053       4.413171
    2    1        -0.331779        -9.0282       4.522403


  Species S                   :

  List of atomic basis orbitals and eigenvalues:
    n    l      energy [Ha]    energy [eV]    outer radius [A]
    1    0       -88.105825     -2397.4815       0.682391
    2    0        -7.730144      -210.3479       2.317169
    3    0        -0.627748       -17.0819       4.483910
    2    1        -5.747971      -156.4103       2.555240
    3    1        -0.255786        -6.9603       4.539062

  Assembling full basis from fixed parts.
  | Species H :   atomic orbital   1 s accepted.
  | Species H :    hydro orbital   2 s accepted.
  | Species H :    hydro orbital   2 p accepted.
  | Species C :   atomic orbital   1 s accepted.
  | Species C :    hydro orbital   2 s accepted.
  | Species C :   atomic orbital   2 s accepted.
  | Species C :   atomic orbital   2 p accepted.
  | Species C :    hydro orbital   2 p accepted.
  | Species C :    hydro orbital   3 d accepted.
  | Species N :   atomic orbital   1 s accepted.
  | Species N :    hydro orbital   3 s accepted.
  | Species N :   atomic orbital   2 s accepted.
  | Species N :   atomic orbital   2 p accepted.
  | Species N :    hydro orbital   2 p accepted.
  | Species N :    hydro orbital   3 d accepted.
  | Species O :   atomic orbital   1 s accepted.
  | Species O :    hydro orbital   3 s accepted.
  | Species O :   atomic orbital   2 s accepted.
  | Species O :   atomic orbital   2 p accepted.
  | Species O :    hydro orbital   2 p accepted.
  | Species O :    hydro orbital   3 d accepted.
  | Species S :   atomic orbital   1 s accepted.
  | Species S :   atomic orbital   2 s accepted.
  | Species S :    ionic orbital   3 s accepted.
  | Species S :   atomic orbital   3 s accepted.
  | Species S :   atomic orbital   2 p accepted.
  | Species S :   atomic orbital   3 p accepted.
  | Species S :    hydro orbital   2 p accepted.
  | Species S :    ionic orbital   3 d accepted.
 
  Basis size parameters after reduction:
  | Total number of radial functions:       29
  | Total number of basis functions :      256
 
  Per-task memory consumption for arrays in subroutine allocate_ext:
  |           7.565980MB.
  Testing on-site integration grid accuracy.
  |  Species  Function  <phi|h_atom|phi> (log., in eV)  <phi|h_atom|phi> (rad., in eV)
           1        1                 -6.4663192853                 -6.4651273558
           1        2                 13.7111246313                 13.7170609718
           1        3                 25.2673269279                 25.2674696378
           2        4               -273.1705927641               -273.1705631568
           2        5                -10.7109323383                -10.7107120029
           2        6                 17.4381822266                 17.4352413244
           2        7                 -5.2255326521                 -5.2270484734
           2        8                  8.6835629259                  8.6603288385
           2        9                 27.4952418996                 27.4953360207
           3       10               -384.4424306495               -384.4423701208
           3       11                 12.5842251816                 12.5842222903
           3       12                -15.7264628251                -15.7264433455
           3       13                 -7.0696854293                 -7.0701769954
           3       14                  8.8090390882                  8.7901077751
           3       15                 35.9586762123                 35.9588528632
           4       16               -514.2458688638               -514.2457643834
           4       17                 15.1795651126                 15.1795290741
           4       18                -21.5359799773                -21.5360846186
           4       19                 -9.0283069236                 -9.0284644067
           4       20                  8.3027758564                  8.2834874195
           4       21                 45.8339351984                 45.8338762259
           5       22              -2397.4814915323              -2397.4804563634
           5       23               -210.3479335736               -210.3479265952
           5       24                -16.8079362322                -16.8079092816
           5       25                  7.5772439785                  7.5675998324
           5       26               -156.4102581151               -156.4102580951
           5       27                 -6.9617737483                 -6.9640288036
           5       28                  7.5696988470                  7.5151244831 ***
           5       29                  6.0973034823                  6.0928113248
 * Note: Onsite integrals marked "***" above are less accurate than
 * onsite_accuracy_threshold =    0.03000 eV. Usually, this is harmless.
 * When in doubt, tighten the "radial" and/or "radial_multiplier" flags to check.

  Preparing densities etc. for the partition functions (integrals / Hartree potential).

  Preparations completed.
  max(cpu_time)          :      0.503 s.
  Wall clock time (cpu1) :      0.607 s.
------------------------------------------------------------

------------------------------------------------------------
          Begin self-consistency loop: Initialization.

          Date     :  20190712, Time     :  030837.333
------------------------------------------------------------

  Initializing index lists of integration centers etc. from given atomic structure:
  Mapping all atomic coordinates to central unit cell.

  Initializing the k-points
          Using symmetry for reducing the k-points
  | k-points reduced from:        1 to        1
  | Number of k-points                             :         1
  The eigenvectors in the calculations are REAL.
  | Number of basis functions in the Hamiltonian integrals :      3450
  | Number of basis functions in a single unit cell        :       256
  | Number of centers in hartree potential         :      1727
  | Number of centers in hartree multipole         :      1202
  | Number of centers in electron density summation:       878
  | Number of centers in basis integrals           :       944
  | Number of centers in integrals                 :       449
  | Number of centers in hamiltonian               :       884
  | Consuming          1 KiB for k_phase.
  | Number of super-cells (origin) [n_cells]                     :         495
  | Number of super-cells (after PM_index) [n_cells]             :          72
  | Number of super-cells in hamiltonian [n_cells_in_hamiltonian]:          72
  | Size of matrix packed + index [n_hamiltonian_matrix_size] :      313349

  Initializing relaxation algorithms.
  Finished initialization of distributed Hessian storage.
  | Global dimension:        78
  | BLACS block size:         2
  | Number of workers:       39

  | Estimated reciprocal-space cutoff momentum G_max:         3.14586737 bohr^-1 .
  | Reciprocal lattice points for long-range Hartree potential:     940
  Using simple linear distribution as default method for k-point parallelism.
  * Using 56 tasks for Scalapack Eigenvalue solver.
  Detailed listing of tasks and assigned k-points:
   Task     0 k-point     1 on d037
   Task     1 k-point     1 on d037
   Task     2 k-point     1 on d037
   Task     3 k-point     1 on d037
   Task     4 k-point     1 on d037
   Task     5 k-point     1 on d037
   Task     6 k-point     1 on d037
   Task     7 k-point     1 on d037
   Task     8 k-point     1 on d037
   Task     9 k-point     1 on d037
   Task    10 k-point     1 on d037
   Task    11 k-point     1 on d037
   Task    12 k-point     1 on d037
   Task    13 k-point     1 on d037
   Task    14 k-point     1 on d037
   Task    15 k-point     1 on d037
   Task    16 k-point     1 on d037
   Task    17 k-point     1 on d037
   Task    18 k-point     1 on d037
   Task    19 k-point     1 on d037
   Task    20 k-point     1 on d037
   Task    21 k-point     1 on d037
   Task    22 k-point     1 on d037
   Task    23 k-point     1 on d037
   Task    24 k-point     1 on d037
   Task    25 k-point     1 on d037
   Task    26 k-point     1 on d037
   Task    27 k-point     1 on d037
   Task    28 k-point     1 on d037
   Task    29 k-point     1 on d037
   Task    30 k-point     1 on d037
   Task    31 k-point     1 on d037
   Task    32 k-point     1 on d037
   Task    33 k-point     1 on d037
   Task    34 k-point     1 on d037
   Task    35 k-point     1 on d037
   Task    36 k-point     1 on d037
   Task    37 k-point     1 on d037
   Task    38 k-point     1 on d037
   Task    39 k-point     1 on d037
   Task    40 k-point     1 on d037
   Task    41 k-point     1 on d037
   Task    42 k-point     1 on d037
   Task    43 k-point     1 on d037
   Task    44 k-point     1 on d037
   Task    45 k-point     1 on d037
   Task    46 k-point     1 on d037
   Task    47 k-point     1 on d037
   Task    48 k-point     1 on d037
   Task    49 k-point     1 on d037
   Task    50 k-point     1 on d037
   Task    51 k-point     1 on d037
   Task    52 k-point     1 on d037
   Task    53 k-point     1 on d037
   Task    54 k-point     1 on d037
   Task    55 k-point     1 on d037
  K-point:     1 Tasks:    56 split into      8 X      7 BLACS grid
  Calculating block size based on n_basis =          256  max_nprow =            8  max_npcol =            7
  ScaLAPACK block size set to:           16
  Allocating        0.012 MB for ovlp
  Allocating        0.012 MB for ham
  Allocating        0.012 MB for eigenvec
  Required Scalapack workspace - INTEGER:            1  REAL:             1
  Partitioning the integration grid into batches with parallel hashing+maxmin method.
  | Number of batches:     1546
  | Maximal batch size:     145
  | Minimal batch size:      51
  | Average batch size:      89.806
  | Standard deviation of batch sizes:      20.616

  Integration load balanced across    56 MPI tasks.
  Work distribution over tasks is as follows:
  Task     0 has       2463 integration points.
  Task     1 has       2459 integration points.
  Task     2 has       2452 integration points.
  Task     3 has       2457 integration points.
  Task     4 has       2454 integration points.
  Task     5 has       2452 integration points.
  Task     6 has       2524 integration points.
  Task     7 has       2524 integration points.
  Task     8 has       2459 integration points.
  Task     9 has       2466 integration points.
  Task    10 has       2507 integration points.
  Task    11 has       2471 integration points.
  Task    12 has       2499 integration points.
  Task    13 has       2458 integration points.
  Task    14 has       2510 integration points.
  Task    15 has       2454 integration points.
  Task    16 has       2498 integration points.
  Task    17 has       2454 integration points.
  Task    18 has       2512 integration points.
  Task    19 has       2453 integration points.
  Task    20 has       2457 integration points.
  Task    21 has       2456 integration points.
  Task    22 has       2487 integration points.
  Task    23 has       2515 integration points.
  Task    24 has       2456 integration points.
  Task    25 has       2452 integration points.
  Task    26 has       2455 integration points.
  Task    27 has       2459 integration points.
  Task    28 has       2512 integration points.
  Task    29 has       2462 integration points.
  Task    30 has       2511 integration points.
  Task    31 has       2453 integration points.
  Task    32 has       2461 integration points.
  Task    33 has       2460 integration points.
  Task    34 has       2526 integration points.
  Task    35 has       2519 integration points.
  Task    36 has       2528 integration points.
  Task    37 has       2469 integration points.
  Task    38 has       2526 integration points.
  Task    39 has       2453 integration points.
  Task    40 has       2474 integration points.
  Task    41 has       2480 integration points.
  Task    42 has       2461 integration points.
  Task    43 has       2455 integration points.
  Task    44 has       2484 integration points.
  Task    45 has       2514 integration points.
  Task    46 has       2459 integration points.
  Task    47 has       2452 integration points.
  Task    48 has       2513 integration points.
  Task    49 has       2454 integration points.
  Task    50 has       2454 integration points.
  Task    51 has       2457 integration points.
  Task    52 has       2524 integration points.
  Task    53 has       2529 integration points.
  Task    54 has       2472 integration points.
  Task    55 has       2515 integration points.
  Initializing partition tables, free-atom densities, potentials, etc. across the integration grid (initialize_grid_storage).
  | initialize_grid_storage: Actual outermost partition radius vs. multipole_radius_free
  | (-- VB: in principle, multipole_radius_free should be larger, hence this output)
  | Species        1: Confinement radius =              4.999999999999999 AA, multipole_radius_free =              5.054417573612229 AA.
  | Species        1: outer_partition_radius set to              5.054417573612229 AA .
  | Species        2: Confinement radius =              4.999999999999999 AA, multipole_radius_free =              5.019602836301480 AA.
  | Species        2: outer_partition_radius set to              5.019602836301480 AA .
  | Species        3: Confinement radius =              4.999999999999999 AA, multipole_radius_free =              5.043624274424571 AA.
  | Species        3: outer_partition_radius set to              5.043624274424571 AA .
  | Species        4: Confinement radius =              4.999999999999999 AA, multipole_radius_free =              5.048384829883283 AA.
  | Species        4: outer_partition_radius set to              5.048384829883283 AA .
  | Species        5: Confinement radius =              4.999999999999999 AA, multipole_radius_free =              5.005414751018925 AA.
  | Species        5: outer_partition_radius set to              5.005414751018925 AA .
  | The sparse table of interatomic distances needs       2743.67 kbyte instead of      7129.09 kbyte of memory.
  | Net number of integration points:   138840
  | of which are non-zero points    :   110578
  | Numerical average free-atom electrostatic potential    :     -7.62184392 eV
  Renormalizing the initial density to the exact electron count on the 3D integration grid.
  | Initial density: Formal number of electrons (from input files) :     100.0000000000
  | Integrated number of electrons on 3D grid     :      99.9972864012
  | Charge integration error                      :      -0.0027135988
  | Normalization factor for density and gradient :       1.0000271367
  Obtaining max. number of non-zero basis functions in each batch (get_n_compute_maxes).
  | Maximal number of non-zero basis functions:      498 in task     0
  | Maximal number of non-zero basis functions:      507 in task     1
  | Maximal number of non-zero basis functions:      486 in task     2
  | Maximal number of non-zero basis functions:      485 in task     3
  | Maximal number of non-zero basis functions:      490 in task     4
  | Maximal number of non-zero basis functions:      503 in task     5
  | Maximal number of non-zero basis functions:      503 in task     6
  | Maximal number of non-zero basis functions:      496 in task     7
  | Maximal number of non-zero basis functions:      493 in task     8
  | Maximal number of non-zero basis functions:      493 in task     9
  | Maximal number of non-zero basis functions:      500 in task    10
  | Maximal number of non-zero basis functions:      508 in task    11
  | Maximal number of non-zero basis functions:      525 in task    12
  | Maximal number of non-zero basis functions:      518 in task    13
  | Maximal number of non-zero basis functions:      521 in task    14
  | Maximal number of non-zero basis functions:      488 in task    15
  | Maximal number of non-zero basis functions:      495 in task    16
  | Maximal number of non-zero basis functions:      503 in task    17
  | Maximal number of non-zero basis functions:      525 in task    18
  | Maximal number of non-zero basis functions:      481 in task    19
  | Maximal number of non-zero basis functions:      503 in task    20
  | Maximal number of non-zero basis functions:      477 in task    21
  | Maximal number of non-zero basis functions:      507 in task    22
  | Maximal number of non-zero basis functions:      503 in task    23
  | Maximal number of non-zero basis functions:      523 in task    24
  | Maximal number of non-zero basis functions:      489 in task    25
  | Maximal number of non-zero basis functions:      501 in task    26
  | Maximal number of non-zero basis functions:      493 in task    27
  | Maximal number of non-zero basis functions:      499 in task    28
  | Maximal number of non-zero basis functions:      476 in task    29
  | Maximal number of non-zero basis functions:      499 in task    30
  | Maximal number of non-zero basis functions:      496 in task    31
  | Maximal number of non-zero basis functions:      513 in task    32
  | Maximal number of non-zero basis functions:      491 in task    33
  | Maximal number of non-zero basis functions:      520 in task    34
  | Maximal number of non-zero basis functions:      509 in task    35
  | Maximal number of non-zero basis functions:      503 in task    36
  | Maximal number of non-zero basis functions:      495 in task    37
  | Maximal number of non-zero basis functions:      509 in task    38
  | Maximal number of non-zero basis functions:      487 in task    39
  | Maximal number of non-zero basis functions:      485 in task    40
  | Maximal number of non-zero basis functions:      480 in task    41
  | Maximal number of non-zero basis functions:      494 in task    42
  | Maximal number of non-zero basis functions:      502 in task    43
  | Maximal number of non-zero basis functions:      504 in task    44
  | Maximal number of non-zero basis functions:      485 in task    45
  | Maximal number of non-zero basis functions:      476 in task    46
  | Maximal number of non-zero basis functions:      492 in task    47
  | Maximal number of non-zero basis functions:      505 in task    48
  | Maximal number of non-zero basis functions:      498 in task    49
  | Maximal number of non-zero basis functions:      500 in task    50
  | Maximal number of non-zero basis functions:      486 in task    51
  | Maximal number of non-zero basis functions:      515 in task    52
  | Maximal number of non-zero basis functions:      512 in task    53
  | Maximal number of non-zero basis functions:      498 in task    54
  | Maximal number of non-zero basis functions:      488 in task    55
  Allocating        0.215 MB for KS_eigenvector
  Integrating Hamiltonian matrix: batch-based integration.
  Time summed over all CPUs for integration: real work       12.102 s, elapsed       20.290 s => Consider using load balancing!
  Integrating overlap matrix.
  Time summed over all CPUs for integration: real work        8.318 s, elapsed       13.086 s
  Decreasing sparse matrix size:
   Tolerance:  9.999999824516700E-014
   Hamiltonian matrix
  | Array has   280316 nonzero elements out of   313349 elements
  | Sparsity factor is 0.105
   Overlap matrix
  | Array has   263691 nonzero elements out of   313349 elements
  | Sparsity factor is 0.158
  New size of hamiltonian matrix:      280321
  Deallocating overlap matrix.

  Updating Kohn-Sham eigenvalues and eigenvectors using ELSI and the ELPA eigensolver.
  Singularity check in k-point 1 (analysis for other k-points may follow below):
  Overlap matrix is not singular
  | Lowest and highest eigenvalues :  0.1179E-02,  0.7727E+01
  Finished singularity check of overlap matrix
  | Time :     0.019 s
  Finished Cholesky decomposition
  | Time :     0.001 s
  Finished transformation to standard eigenproblem
  | Time :     0.001 s
  Starting ELPA eigensolver
  Finished solving standard eigenproblem
  | Time :     0.020 s
  Finished back-transformation of eigenvectors
  | Time :     0.000 s

  Obtaining occupation numbers and chemical potential using ELSI.
  | Chemical potential (Fermi level):    -8.48059544 eV
  Writing Kohn-Sham eigenvalues.

  State    Occupation    Eigenvalue [Ha]    Eigenvalue [eV]
      1       2.00000         -18.985310         -516.61657
      2       2.00000         -18.985310         -516.61657
      3       2.00000         -10.154079         -276.30654
      4       2.00000         -10.154078         -276.30653
      5       2.00000         -10.154005         -276.30453
      6       2.00000         -10.154004         -276.30451
      7       2.00000         -10.150607         -276.21208
      8       2.00000         -10.150607         -276.21206
      9       2.00000         -10.150273         -276.20298
     10       2.00000         -10.150272         -276.20295
     11       2.00000         -10.142456         -275.99028
     12       2.00000         -10.142455         -275.99024
     13       2.00000         -10.142075         -275.97991
     14       2.00000         -10.142075         -275.97991
     15       2.00000          -1.154574          -31.41755
     16       2.00000          -1.153696          -31.39366
     17       2.00000          -0.986642          -26.84789
     18       2.00000          -0.986385          -26.84090
     19       2.00000          -0.853435          -23.22316
     20       2.00000          -0.852572          -23.19967
     21       2.00000          -0.841451          -22.89704
     22       2.00000          -0.840833          -22.88024
     23       2.00000          -0.749452          -20.39362
     24       2.00000          -0.749087          -20.38370
     25       2.00000          -0.715381          -19.46649
     26       2.00000          -0.714689          -19.44766
     27       2.00000          -0.671889          -18.28304
     28       2.00000          -0.671783          -18.28015
     29       2.00000          -0.643775          -17.51801
     30       2.00000          -0.636686          -17.32512
     31       2.00000          -0.585742          -15.93886
     32       2.00000          -0.585576          -15.93432
     33       2.00000          -0.542525          -14.76285
     34       2.00000          -0.537671          -14.63078
     35       2.00000          -0.536261          -14.59242
     36       2.00000          -0.531838          -14.47205
     37       2.00000          -0.525981          -14.31267
     38       2.00000          -0.524511          -14.27268
     39       2.00000          -0.513668          -13.97762
     40       2.00000          -0.513021          -13.96001
     41       2.00000          -0.495201          -13.47510
     42       2.00000          -0.493431          -13.42693
     43       2.00000          -0.481813          -13.11081
     44       2.00000          -0.479312          -13.04274
     45       2.00000          -0.474319          -12.90689
     46       2.00000          -0.473740          -12.89111
     47       2.00000          -0.392136          -10.67057
     48       2.00000          -0.388997          -10.58515
     49       2.00000          -0.363991           -9.90470
     50       2.00000          -0.359489           -9.78218
     51       0.00000          -0.164570           -4.47817
     52       0.00000          -0.160345           -4.36321
     53       0.00000          -0.111465           -3.03312
     54       0.00000          -0.110259           -3.00029
     55       0.00000          -0.099438           -2.70584
     56       0.00000          -0.082934           -2.25674
     57       0.00000          -0.067922           -1.84824
     58       0.00000          -0.063012           -1.71464
     59       0.00000          -0.062012           -1.68743
     60       0.00000          -0.033353           -0.90758
     61       0.00000          -0.027851           -0.75787
     62       0.00000          -0.019217           -0.52291
     63       0.00000          -0.011568           -0.31478
     64       0.00000          -0.005785           -0.15741
     65       0.00000           0.004542            0.12360
     66       0.00000           0.028652            0.77966
     67       0.00000           0.031995            0.87064
     68       0.00000           0.040524            1.10272
     69       0.00000           0.062385            1.69758
     70       0.00000           0.087693            2.38625
     71       0.00000           0.090581            2.46483
     72       0.00000           0.098914            2.69158
     73       0.00000           0.100204            2.72670
     74       0.00000           0.106081            2.88662
     75       0.00000           0.131079            3.56685
     76       0.00000           0.137830            3.75054
     77       0.00000           0.153871            4.18705
     78       0.00000           0.168961            4.59765
     79       0.00000           0.192534            5.23913
     80       0.00000           0.203107            5.52682
     81       0.00000           0.213549            5.81096
     82       0.00000           0.216397            5.88845
     83       0.00000           0.219680            5.97780
     84       0.00000           0.247415            6.73249
     85       0.00000           0.268215            7.29851
     86       0.00000           0.272627            7.41855
     87       0.00000           0.275424            7.49466
     88       0.00000           0.304483            8.28541
     89       0.00000           0.319863            8.70391
     90       0.00000           0.339190            9.22984
[...]
   Total forces(  22)            : -0.432643E-02  0.217283E-03  0.389492E-02
  atom #   23
   Hellmann-Feynman              : -0.391497E-01 -0.577426E-01 -0.906426E-02
   Ionic forces                  :  0.000000E+00  0.000000E+00  0.000000E+00
   Multipole                     :  0.296738E-01  0.156814E+00  0.260723E-02
   Pulay + GGA                   :  0.994763E-03 -0.119136E+00  0.739564E-02
   Van der Waals                 :  0.774985E-02  0.168144E-01 -0.269015E-02
   ----------------------------------------------------------------
   Total forces(  23)            : -0.731308E-03 -0.324977E-02 -0.175154E-02
  atom #   24
   Hellmann-Feynman              : -0.145352E+01 -0.101089E+01  0.603374E+00
   Ionic forces                  :  0.000000E+00  0.000000E+00  0.000000E+00
   Multipole                     :  0.166784E+00 -0.317332E-02  0.381050E-01
   Pulay + GGA                   :  0.127093E+01  0.102954E+01 -0.652835E+00
   Van der Waals                 :  0.170478E-01 -0.145184E-01  0.164556E-02
   ----------------------------------------------------------------
   Total forces(  24)            :  0.123951E-02  0.956847E-03 -0.970977E-02
  atom #   25
   Hellmann-Feynman              :  0.142323E+01  0.420713E+01 -0.184255E+01
   Ionic forces                  :  0.000000E+00  0.000000E+00  0.000000E+00
   Multipole                     : -0.405336E-02 -0.790883E-01  0.107070E+00
   Pulay + GGA                   : -0.144428E+01 -0.410894E+01  0.173105E+01
   Van der Waals                 :  0.214467E-01 -0.208631E-01  0.101764E-01
   ----------------------------------------------------------------
   Total forces(  25)            : -0.364964E-02 -0.176092E-02  0.574554E-02
  atom #   26
   Hellmann-Feynman              : -0.403877E-01 -0.100189E-01  0.431278E-01
   Ionic forces                  :  0.000000E+00  0.000000E+00  0.000000E+00
   Multipole                     :  0.138519E+00  0.522034E-01  0.501769E-01
   Pulay + GGA                   : -0.802769E-01 -0.421383E-01 -0.939858E-01
   Van der Waals                 : -0.154030E-01 -0.384826E-03 -0.162756E-03
   ----------------------------------------------------------------
   Total forces(  26)            :  0.245114E-02 -0.338582E-03 -0.843905E-03

  Timings for VdW correction (Tkatchenko-Scheffler 2009 or later):
  | CPU time:        1.334 s, Wall clock time:        1.335 s.
  Removing unitary transformations (pure translations, rotations) from forces on atoms.
  Atomic forces before filtering:
  | Net force on center of mass :  -0.650118E-02  0.181746E-04  0.493594E-02 eV/A
  Atomic forces after filtering:
  | Net force on center of mass :   0.278760E-17  0.143735E-17 -0.365872E-17 eV/A

  Energy and forces in a compact form:
  | Total energy uncorrected      :         -0.167185729199155E+05 eV
  | Total energy corrected        :         -0.167185729199155E+05 eV  <-- do not rely on this value for anything but (periodic) metals
  | Electronic free energy        :         -0.167185729199155E+05 eV
  Total atomic forces (unitary forces cleaned) [eV/Ang]:
  |    1          0.292196784341747E-02         -0.299231508946009E-02         -0.745924588844674E-04
  |    2         -0.759093010633471E-02          0.814397562584164E-03         -0.227264448954567E-05
  |    3          0.110779995999563E-02          0.121870210020009E-02         -0.411870107485366E-03
  |    4          0.429086411222042E-02          0.251950840308656E-02          0.555302279871904E-03
  |    5          0.551121243239659E-02          0.214687089424768E-02          0.397087461332413E-02
  |    6          0.699118974040545E-03          0.299285021702203E-04         -0.174922797152899E-02
  |    7         -0.330775924468766E-02         -0.119207152196957E-02         -0.166353584537713E-02
  |    8         -0.197749096200930E-05         -0.611642633018941E-03          0.302789497956433E-02
  |    9         -0.405281736819573E-02         -0.135071759402595E-03          0.366839540071936E-02
  |   10         -0.481420533749491E-03          0.328548598231579E-02         -0.196490184953144E-02
  |   11          0.152548974200088E-02         -0.856763944734335E-03         -0.972542259241629E-02
  |   12         -0.334596533337577E-02          0.246366386233638E-02          0.541720728960958E-02
  |   13          0.272850721741098E-02          0.435768984634576E-03         -0.105646308642115E-02
  |   14          0.282730736866476E-02          0.163273576051134E-02         -0.346161692045299E-03
  |   15         -0.759137619475867E-02         -0.287202432643425E-03          0.289053671639652E-03
  |   16          0.115590334677746E-02         -0.123524081713388E-02         -0.313718258681950E-03
  |   17          0.434171340107833E-02         -0.264922705382206E-02          0.577361263796327E-03
  |   18          0.557134245796912E-02         -0.225604756940320E-02          0.384327227444787E-02
  |   19          0.682282647312660E-03          0.694443716235711E-05         -0.166687909361854E-02
  |   20         -0.335738497035711E-02          0.121672520092178E-02         -0.161310706505771E-02
  |   21          0.132615252863936E-03          0.623489108893949E-03          0.285277218454345E-02
  |   22         -0.407638009870794E-02          0.216584133523700E-03          0.370507308168245E-02
  |   23         -0.481262527058780E-03         -0.325046715777571E-02         -0.194138478206458E-02
  |   24          0.148955074456978E-02          0.956148392380404E-03         -0.989961529892210E-02
  |   25         -0.339959160039518E-02         -0.176162239129543E-02          0.555569446950285E-02
  |   26          0.270118996786451E-02         -0.339280954309752E-03         -0.103374876217734E-02

  ------------------------------------ 
  Start decomposition of the XC Energy 
  ------------------------------------ 
  X and C from original XC functional choice 
  Hartree-Fock Energy :          0.000000000 Ha              0.000000000 eV
  X Energy            :        -82.550906526 Ha          -2246.324458298 eV
  C Energy            :         -3.371269342 Ha            -91.736906310 eV
  Total XC Energy     :        -85.922175868 Ha          -2338.061364608 eV
  ------------------------------------ 
  LDA X and C from self-consistent density 
  X Energy LDA        :        -74.891119904 Ha          -2037.891059354 eV
  C Energy LDA        :         -6.474746777 Ha           -176.186824096 eV
  ------------------------------------ 
  End decomposition of the XC Energy 
  ------------------------------------ 

------------------------------------------------------------
  Relaxation / MD: End force evaluation.       :  max(cpu_time)    wall_clock(cpu1)
  | Time for this force evaluation             :       22.577 s          22.602 s

------------------------------------------------------------
  Geometry optimization: Attempting to predict improved coordinates.

  Removing unitary transformations (pure translations, rotations) from forces on atoms.
  Atomic forces before filtering:
  | Net force on center of mass :   0.278760E-17  0.143735E-17 -0.365872E-17 eV/A
  Atomic forces after filtering:
  | Net force on center of mass :  -0.104535E-17  0.148091E-17 -0.365872E-17 eV/A
  Net remaining forces (excluding translations, rotations) in present geometry:
  || Forces on atoms   || =   0.989962E-02 eV/A.
  Maximum force component is  0.989962E-02 eV/A.
  Present geometry is converged.

------------------------------------------------------------
  Final atomic structure:
                         x [A]             y [A]             z [A]
  lattice_vector         5.15173600        0.00000000        0.00000000
  lattice_vector         0.00000000       10.61875900        0.00000000
  lattice_vector        -5.03208400        0.00000000        4.86275800

            atom         1.53816142        4.08427964        4.45375096  O
            atom         0.33688103        4.28047095        3.78107473  C
            atom        -0.22498779        5.16065213        4.07762089  H
            atom         0.23851060        3.34623380        2.78897399  C
            atom        -0.33572293        2.57178722        1.63176269  C
            atom        -0.46112969        3.14994291        0.68349420  H
            atom        -1.29066153        2.03294473        1.80816170  H
            atom         0.97499256        1.67020491        1.69579995  C
            atom         1.59863263        1.84336558        0.77636747  H
            atom         0.83897564        0.58791722        1.82948173  H
            atom         1.38761862        2.49227504        2.88296227  C
            atom         2.14508791        2.92678261        3.94108533  C
            atom         3.11010943        2.68875217        4.37816882  H
            atom         4.05417898        6.53453837        2.02241135  O
            atom         2.85292469        6.33828045        1.34968824  C
            atom         2.29105313        5.45810274        1.64623439  H
            atom         2.75455169        7.27252426        0.35759311  C
            atom         2.18031596        8.04697400       -0.79961534  C
            atom         2.05490490        7.46882163       -1.74788564  H
            atom         1.22538115        8.58581934       -0.62321612  H
            atom         3.49103460        8.94854732       -0.73558022  C
            atom         4.11467096        8.77538220       -1.65501507  H
            atom         3.35502336       10.03083458       -0.60189871  H
            atom         3.90366356        8.12647473        0.45157903  C
            atom         4.66113824        7.69195820        1.50969409  C
            atom         5.62616089        7.92998325        1.94677617  H

  Fractional coordinates:
                         L1                L2                L3
       atom_frac         1.19318932        0.38462872        0.91588990  O
       atom_frac         0.82489019        0.40310463        0.77755766  C
       atom_frac         0.77539297        0.48599390        0.83854078  H
       atom_frac         0.60651388        0.31512475        0.57353748  C
       atom_frac         0.26260261        0.24219282        0.33556321  C
       atom_frac         0.04778281        0.29663946        0.14055690  H
       atom_frac         0.11267311        0.19144843        0.37183872  H
       atom_frac         0.52988777        0.15728815        0.34873213  C
       atom_frac         0.46625719        0.17359520        0.15965579  H
       atom_frac         0.53033807        0.05536591        0.37622307  H
       atom_frac         0.84844574        0.23470493        0.59286567  C
       atom_frac         1.20802108        0.27562379        0.81046298  C
       atom_frac         1.48313702        0.25320776        0.90034684  H
       atom_frac         1.19319248        0.61537684        0.41589800  O
       atom_frac         0.82488901        0.59689465        0.27755612  C
       atom_frac         0.77539125        0.51400571        0.33853924  H
       atom_frac         0.60651333        0.68487516        0.07353710  C
       atom_frac         0.26260220        0.75780739       -0.16443659  C
       atom_frac         0.04778121        0.70336106       -0.35944327  H
       atom_frac         0.11267348        0.80855205       -0.12816104  H
       atom_frac         0.52988755        0.84271122       -0.15126811  C
       atom_frac         0.46625577        0.82640374       -0.34034494  H
       atom_frac         0.53033889        0.94463342       -0.12377723  H
       atom_frac         0.84844546        0.76529421        0.09286480  C
       atom_frac         1.20802024        0.72437450        0.31046046  C
       atom_frac         1.48313611        0.74679002        0.40034404  H
------------------------------------------------------------
  |------------------------------------------------------
  | Final ELSI Output
  |------------------------------------------------------
  |
  | Physical Properties
  |   Number of electrons       :        0.10000000E+03
  |   Number of spins           :                     1
  |   Number of k-points        :                     1
  |   Number of states          :                   110
  |
  | Matrix Properties
  |   Matrix format             :           BLACS_DENSE
  |   Number of basis functions :                   256
  |   Matrix sparsity           :        0.51879883E-02
  |
  | Computational Details
  |   Parallel mode             :            MULTI_PROC
  |   Number of MPI tasks       :                    56
  |   Solver requested          :                  ELPA
  |   Number of ELSI calls      :                   140
  |
  |------------------------------------------------------
  | ELSI Project (c)  elsi-interchange.org
  |------------------------------------------------------

------------------------------------------------------------------------------
  Final output of selected total energy values:

  The following output summarizes some interesting total energy values
  at the end of a run (AFTER all relaxation, molecular dynamics, etc.).

  | Total energy of the DFT / Hartree-Fock s.c.f. calculation      :         -16718.572919915 eV
  | Final zero-broadening corrected energy (caution - metals only) :         -16718.572919915 eV
  | For reference only, the value of 1 Hartree used in FHI-aims is :             27.211384500 eV
  | For reference only, the overall average (free atom contribution
  | + realspace contribution) of the electrostatic potential after
  | s.c.f. convergence is                                          :             -7.000009703 eV

  Before relying on these values, please be sure to understand exactly which
  total energy value is referred to by a given number. Different objects may
  all carry the same name 'total energy'. Definitions:

  Total energy of the DFT / Hartree-Fock s.c.f. calculation:
  | Note that this energy does not include ANY quantities calculated after the
  | s.c.f. cycle, in particular not ANY RPA, MP2, etc. many-body perturbation terms.

  Final zero-broadening corrected energy:
  | For metallic systems only, a broadening of the occupation numbers at the Fermi
  | level can be extrapolated back to zero broadening by an electron-gas inspired
  | formula. For all systems that are not real metals, this value can be
  | meaningless and should be avoided.

------------------------------------------------------------------------------
  Methods described in the following list of references were used in this FHI-aims run.
  If you publish the results, please make sure to cite these reference if they apply.
  FHI-aims is an academic code, and for our developers (often, Ph.D. students
  and postdocs), scientific credit in the community is essential.
  Thank you for helping us!

  For any use of FHI-aims, please cite:

    Volker Blum, Ralf Gehrke, Felix Hanke, Paula Havu, Ville Havu,
    Xinguo Ren, Karsten Reuter, and Matthias Scheffler
    'Ab initio molecular simulations with numeric atom-centered orbitals'
    Computer Physics Communications 180, 2175-2196 (2009)
    http://dx.doi.org/10.1016/j.cpc.2009.06.022


  The provided symmetry information was generated with SPGlib:

    Atsushi Togo, Yusuke Seto, Dimitar Pashov
    SPGlib 1.7.3 obtained from http://spglib.sourceforge.net
    Copyright (C) 2008 Atsushi Togo


  The scalable eigensolver library ELPA was used in your run.
  ELPA is essential especially for large systems on hundreds or thousands of CPUs.
  For ELPA, please cite:

    Andreas Marek, Volker Blum, Rainer Johanni, Ville Havu, Bruno Lang,
    Thomas Auckenthaler, Alexander Heinecke, Hans-Joachim Bungartz, and Hermann Lederer,
    'The ELPA Library - Scalable Parallel Eigenvalue Solutions
    for Electronic Structure Theory and Computational Science'
    The Journal of Physics: Condensed Matter 26, 213201 (2014).
    http://dx.doi.org/10.1088/0953-8984/26/21/213201


  The ELSI infrastructure was used in your run to solve the Kohn-Sham electronic structure.
  Please check out http://elsi-interchange.org to learn more.
  If scalability is important for your project, please acknowledge ELSI by citing:

    V. W-z. Yu, F. Corsetti, A. Garcia, W. P. Huhn, M. Jacquelin, W. Jia,
    B. Lange, L. Lin, J. Lu, W. Mi, A. Seifitokaldani, A. Vazquez-Mayagoitia,
    C. Yang, H. Yang, and V. Blum
    'ELSI: A unified software interface for Kohn-Sham electronic structure solvers'
    Computer Physics Communications 222, 267-285 (2018).
    http://dx.doi.org/10.1016/j.cpc.2017.09.007


  For the real-space grid partitioning and parallelization used in this calculation, please cite:

    Ville Havu, Volker Blum, Paula Havu, and Matthias Scheffler,
    'Efficient O(N) integration for all-electron electronic structure calculation'
    'using numerically tabulated basis functions'
    Journal of Computational Physics 228, 8367-8379 (2009).
    http://dx.doi.org/10.1016/j.jcp.2009.08.008

  Of course, there are many other important community references, e.g., those cited in the
  above references. Our list is limited to references that describe implementations in the
  FHI-aims code. The reason is purely practical (length of this list) - please credit others as well.

------------------------------------------------------------
          Leaving FHI-aims.
          Date     :  20190712, Time     :  031626.237

          Computational steps:
          | Number of self-consistency cycles          :          139
          | Number of SCF (re)initializations          :           17
          | Number of relaxation steps                 :           16

          Detailed time accounting                     :  max(cpu_time)    wall_clock(cpu1)
          | Total time                                 :      469.533 s         469.749 s
          | Preparation time                           :        0.503 s           0.607 s
          | Boundary condition initalization           :        6.381 s           6.403 s
          | Grid partitioning                          :        2.241 s           2.233 s
          | Preloading free-atom quantities on grid    :       12.461 s          12.463 s
          | Free-atom superposition energy             :        1.641 s           1.641 s
          | Total time for integrations                :       57.633 s          57.669 s
          | Total time for solution of K.-S. equations :        3.462 s           3.460 s
          | Total time for EV reorthonormalization     :        0.185 s           0.185 s
          | Total time for density & force components  :      174.843 s         174.826 s
          | Total time for mixing & preconditioning    :       41.125 s          44.563 s
          | Total time for Hartree multipole update    :        0.723 s           0.736 s
          | Total time for Hartree multipole sum       :      139.467 s         139.489 s
          | Total time for total energy evaluation     :        0.139 s           0.411 s
          | Total time for vdW correction              :       22.646 s          22.680 s

          Partial memory accounting:
          | Residual value for overall tracked memory usage across tasks:     0.000000 MB (should be 0.000000 MB)
          | Peak values for overall tracked memory usage:
          |   Minimum:       16.683 MB (on task 30 after allocating d_wave)
          |   Maximum:       18.227 MB (on task  3 after allocating d_wave)
          |   Average:       17.281 MB
          | Largest tracked array allocation:
          |   Minimum:        3.427 MB (hessian_basis_wave on task 30)
          |   Maximum:        3.757 MB (hessian_basis_wave on task  3)
          |   Average:        3.547 MB
          Note:  These values currently only include a subset of arrays which are explicitly tracked.
          The "true" memory usage will be greater.

          Have a nice day.
------------------------------------------------------------
