------------------------------------------------------------
          Invoking FHI-aims ...
          Version 190522
          Compiled on 2019/06/18 at 22:17:48 on host coe.psc.edu.

          When using FHI-aims, please cite the following reference:

          Volker Blum, Ralf Gehrke, Felix Hanke, Paula Havu,
          Ville Havu, Xinguo Ren, Karsten Reuter, and Matthias Scheffler,
          'Ab Initio Molecular Simulations with Numeric Atom-Centered Orbitals',
          Computer Physics Communications 180, 2175-2196 (2009)

          For any questions about FHI-aims, please visit the aimsclub website
          with its forums and wiki. Contributions to both the forums and the
          wiki are warmly encouraged - they are for you, and everyone is welcome there.

------------------------------------------------------------



  Date     :  20190711, Time     :  214039.686
  Time zero on CPU 1             :   0.159347000000000E+01  s.
  Internal wall clock time zero  :           332113239.686  s.

  FHI-aims created a unique identifier for this run for later identification
  aims_uuid : C9701470-0FD2-4D3D-AA50-D4A692B9FC73

  Using       56 parallel tasks.
  Task        0 on host d042 reporting.
  Task        1 on host d042 reporting.
  Task        2 on host d042 reporting.
  Task        3 on host d042 reporting.
  Task        4 on host d042 reporting.
  Task        5 on host d042 reporting.
  Task        6 on host d042 reporting.
  Task        7 on host d042 reporting.
  Task        8 on host d042 reporting.
  Task        9 on host d042 reporting.
  Task       10 on host d042 reporting.
  Task       11 on host d042 reporting.
  Task       12 on host d042 reporting.
  Task       13 on host d042 reporting.
  Task       14 on host d042 reporting.
  Task       15 on host d042 reporting.
  Task       16 on host d042 reporting.
  Task       17 on host d042 reporting.
  Task       18 on host d042 reporting.
  Task       19 on host d042 reporting.
  Task       20 on host d042 reporting.
  Task       21 on host d042 reporting.
  Task       22 on host d042 reporting.
  Task       23 on host d042 reporting.
  Task       24 on host d042 reporting.
  Task       25 on host d042 reporting.
  Task       26 on host d042 reporting.
  Task       27 on host d042 reporting.
  Task       28 on host d042 reporting.
  Task       29 on host d042 reporting.
  Task       30 on host d042 reporting.
  Task       31 on host d042 reporting.
  Task       32 on host d042 reporting.
  Task       33 on host d042 reporting.
  Task       34 on host d042 reporting.
  Task       35 on host d042 reporting.
  Task       36 on host d042 reporting.
  Task       37 on host d042 reporting.
  Task       38 on host d042 reporting.
  Task       39 on host d042 reporting.
  Task       40 on host d042 reporting.
  Task       41 on host d042 reporting.
  Task       42 on host d042 reporting.
  Task       43 on host d042 reporting.
  Task       44 on host d042 reporting.
  Task       45 on host d042 reporting.
  Task       46 on host d042 reporting.
  Task       47 on host d042 reporting.
  Task       48 on host d042 reporting.
  Task       49 on host d042 reporting.
  Task       50 on host d042 reporting.
  Task       51 on host d042 reporting.
  Task       52 on host d042 reporting.
  Task       53 on host d042 reporting.
  Task       54 on host d042 reporting.
  Task       55 on host d042 reporting.

  Performing system and environment tests:
  | Environment variable OMP_NUM_THREADS correctly set to 1.
  | Maximum stacksize for task 0: unlimited
  | Maximum stacksize for task 1: unlimited
  | Maximum stacksize for task 2: unlimited
  | Maximum stacksize for task 3: unlimited
  | Maximum stacksize for task 4: unlimited
  | Maximum stacksize for task 5: unlimited
  | Maximum stacksize for task 6: unlimited
  | Maximum stacksize for task 7: unlimited
  | Maximum stacksize for task 8: unlimited
  | Maximum stacksize for task 9: unlimited
  | Maximum stacksize for task 10: unlimited
  | Maximum stacksize for task 11: unlimited
  | Maximum stacksize for task 12: unlimited
  | Maximum stacksize for task 13: unlimited
  | Maximum stacksize for task 14: unlimited
  | Maximum stacksize for task 15: unlimited
  | Maximum stacksize for task 16: unlimited
  | Maximum stacksize for task 17: unlimited
  | Maximum stacksize for task 18: unlimited
  | Maximum stacksize for task 19: unlimited
  | Maximum stacksize for task 20: unlimited
  | Maximum stacksize for task 21: unlimited
  | Maximum stacksize for task 22: unlimited
  | Maximum stacksize for task 23: unlimited
  | Maximum stacksize for task 24: unlimited
  | Maximum stacksize for task 25: unlimited
  | Maximum stacksize for task 26: unlimited
  | Maximum stacksize for task 27: unlimited
  | Maximum stacksize for task 28: unlimited
  | Maximum stacksize for task 29: unlimited
  | Maximum stacksize for task 30: unlimited
  | Maximum stacksize for task 31: unlimited
  | Maximum stacksize for task 32: unlimited
  | Maximum stacksize for task 33: unlimited
  | Maximum stacksize for task 34: unlimited
  | Maximum stacksize for task 35: unlimited
  | Maximum stacksize for task 36: unlimited
  | Maximum stacksize for task 37: unlimited
  | Maximum stacksize for task 38: unlimited
  | Maximum stacksize for task 39: unlimited
  | Maximum stacksize for task 40: unlimited
  | Maximum stacksize for task 41: unlimited
  | Maximum stacksize for task 42: unlimited
  | Maximum stacksize for task 43: unlimited
  | Maximum stacksize for task 44: unlimited
  | Maximum stacksize for task 45: unlimited
  | Maximum stacksize for task 46: unlimited
  | Maximum stacksize for task 47: unlimited
  | Maximum stacksize for task 48: unlimited
  | Maximum stacksize for task 49: unlimited
  | Maximum stacksize for task 50: unlimited
  | Maximum stacksize for task 51: unlimited
  | Maximum stacksize for task 52: unlimited
  | Maximum stacksize for task 53: unlimited
  | Maximum stacksize for task 54: unlimited
  | Maximum stacksize for task 55: unlimited
  | Current stacksize for task 0: unlimited
  | Current stacksize for task 1: unlimited
  | Current stacksize for task 2: unlimited
  | Current stacksize for task 3: unlimited
  | Current stacksize for task 4: unlimited
  | Current stacksize for task 5: unlimited
  | Current stacksize for task 6: unlimited
  | Current stacksize for task 7: unlimited
  | Current stacksize for task 8: unlimited
  | Current stacksize for task 9: unlimited
  | Current stacksize for task 10: unlimited
  | Current stacksize for task 11: unlimited
  | Current stacksize for task 12: unlimited
  | Current stacksize for task 13: unlimited
  | Current stacksize for task 14: unlimited
  | Current stacksize for task 15: unlimited
  | Current stacksize for task 16: unlimited
  | Current stacksize for task 17: unlimited
  | Current stacksize for task 18: unlimited
  | Current stacksize for task 19: unlimited
  | Current stacksize for task 20: unlimited
  | Current stacksize for task 21: unlimited
  | Current stacksize for task 22: unlimited
  | Current stacksize for task 23: unlimited
  | Current stacksize for task 24: unlimited
  | Current stacksize for task 25: unlimited
  | Current stacksize for task 26: unlimited
  | Current stacksize for task 27: unlimited
  | Current stacksize for task 28: unlimited
  | Current stacksize for task 29: unlimited
  | Current stacksize for task 30: unlimited
  | Current stacksize for task 31: unlimited
  | Current stacksize for task 32: unlimited
  | Current stacksize for task 33: unlimited
  | Current stacksize for task 34: unlimited
  | Current stacksize for task 35: unlimited
  | Current stacksize for task 36: unlimited
  | Current stacksize for task 37: unlimited
  | Current stacksize for task 38: unlimited
  | Current stacksize for task 39: unlimited
  | Current stacksize for task 40: unlimited
  | Current stacksize for task 41: unlimited
  | Current stacksize for task 42: unlimited
  | Current stacksize for task 43: unlimited
  | Current stacksize for task 44: unlimited
  | Current stacksize for task 45: unlimited
  | Current stacksize for task 46: unlimited
  | Current stacksize for task 47: unlimited
  | Current stacksize for task 48: unlimited
  | Current stacksize for task 49: unlimited
  | Current stacksize for task 50: unlimited
  | Current stacksize for task 51: unlimited
  | Current stacksize for task 52: unlimited
  | Current stacksize for task 53: unlimited
  | Current stacksize for task 54: unlimited
  | Current stacksize for task 55: unlimited
  | Checking for scalapack...
  | Testing pdtran()...
  | All pdtran() tests passed.

  Obtaining array dimensions for all initial allocations:
  
  -----------------------------------------------------------------------
  Parsing control.in (first pass over file, find array dimensions only).
  The contents of control.in will be repeated verbatim below
  unless switched off by setting 'verbatim_writeout .false.' .
  in the first line of control.in .
  -----------------------------------------------------------------------
  
    #########################################################################################
    #
    #   input file control.in tight for scaling studies
    #
    #########################################################################################
    #
    #  Physical model
    #
      xc                 pbe
      spin               none
      relativistic       none
      override_relativity .true.
      charge             0.
    #
    #  SCF convergence
    #
      occupation_type    gaussian 0.1
      mixer              pulay
        n_max_pulay        10
        charge_mix_param   0.3
      sc_accuracy_rho    1E-4
      sc_accuracy_eev    1E-2
      sc_accuracy_etot   1E-4
      sc_accuracy_forces 1E-2
      sc_iter_limit      500
  
  
  #    restart restart_file
    #KS_method scalapack_old
    #KS_method serial also works
   hessian_to_restart_geometry     .false.
  
    #
    #
    #  Eigenvalue solution
      #KS_method  lapack
    #  partition_type rho_r2 ## !! use only if on BG you run into an unexpected
    #memory shortage per processor!!
  
    #
    #  accuracy / efficiency for normal scf
    #
    #  density_update_method density_matrix
    #  collect_eigenvectors .false.
    #  empty_states     3 ## This is the setting for light elements. Careful!!
    #
    #  use_local_index .true.
    ##  load_balancing .true.
    #  distributed_spline_storage .false.  ## Helps save memory but may hurt your
    #  performance. Test effect for VERY MANY CPUs.
    #
    #  For periodic boundary conditions
    #
    #    k_grid 1 1 1
    #    output k_eigenvalue 1
  
    #
    #  Relaxation
    #
    #  restart_relaxations .true.
     relax_geometry   bfgs 1.e-2
      vdw_correction_hirshfeld
    #  output Hirshfeld-I
    #
    ################################################################################
    ################################################################################
    #
    #  FHI-aims code project
    #  VB, Fritz-Haber Institut, 2009
    #
    #  Suggested "light" defaults for H atom (to be pasted into control.in file)
    #  Be sure to double-check any results obtained with these settings for post-processing,
    #  e.g., with the "tight" defaults and larger basis sets.
    #
    ################################################################################
      species        H
    #     global species definitions
        nucleus             1
        mass                1.00794
    #
        l_hartree           4
    #
        cut_pot             3.5  1.5  1.0
        basis_dep_cutoff    1e-4
    #
        radial_base         24 5.0
        radial_multiplier   1
        angular_grids       specified
          division   0.2421   50
          division   0.3822  110
          division   0.4799  194
          division   0.5341  302
    #      division   0.5626  434
    #      division   0.5922  590
    #      division   0.6542  770
    #      division   0.6868 1202
    #      outer_grid  770
          outer_grid  302
    ################################################################################
    #
    #  Definition of "minimal" basis
    #
    ################################################################################
    #     valence basis states
        valence      1  s   1.
    #     ion occupancy
        ion_occ      1  s   0.5
    ################################################################################
    #
    #  Suggested additional basis functions. For production calculations,
    #  uncomment them one after another (the most important basis functions are
    #  listed first).
    #
    #  Basis constructed for dimers: 0.5 A, 0.7 A, 1.0 A, 1.5 A, 2.5 A
    #
    ################################################################################
    #  "First tier" - improvements: -1014.90 meV to -62.69 meV
         hydro 2 s 2.1
         hydro 2 p 3.5
    #  "Second tier" - improvements: -12.89 meV to -1.83 meV
    #     hydro 1 s 0.85
    #     hydro 2 p 3.7
    #     hydro 2 s 1.2
    #     hydro 3 d 7
    #  "Third tier" - improvements: -0.25 meV to -0.12 meV
    #     hydro 4 f 11.2
    #     hydro 3 p 4.8
    #     hydro 4 d 9
    #     hydro 3 s 3.2
    ################################################################################
    #
    #  FHI-aims code project
    #  VB, Fritz-Haber Institut, 2009
    #
    #  Suggested "light" defaults for C atom (to be pasted into control.in file)
    #  Be sure to double-check any results obtained with these settings for post-processing,
    #  e.g., with the "tight" defaults and larger basis sets.
    #
    ################################################################################
      species        C
    #     global species definitions
        nucleus             6
        mass                12.0107
    #
        l_hartree           4
    #
        cut_pot             3.5  1.5  1.0
        basis_dep_cutoff    1e-4
    #
        radial_base         34 5.0
        radial_multiplier   1
        angular_grids specified
          division   0.3326   50
          division   0.5710  110
          division   0.7727  194
          division   0.8772  302
    #      division   0.9334  434
    #      division   0.9625  590
    #      division   0.9924  770
    #      division   1.0230  974
    #      division   1.4589 1202
    #     outer_grid  974
         outer_grid 302
    ################################################################################
    #
    #  Definition of "minimal" basis
    #
    ################################################################################
    #     valence basis states
        valence      2  s   2.
        valence      2  p   2.
    #     ion occupancy
        ion_occ      2  s   1.
        ion_occ      2  p   1.
    ################################################################################
    #
    #  Suggested additional basis functions. For production calculations,
    #  uncomment them one after another (the most important basis functions are
    #  listed first).
    #
    #  Constructed for dimers: 1.0 A, 1.25 A, 1.5 A, 2.0 A, 3.0 A
    #
    ################################################################################
    #  "First tier" - improvements: -1214.57 meV to -155.61 meV
         hydro 2 p 1.7
         hydro 3 d 6
         hydro 2 s 4.9
    #  "Second tier" - improvements: -67.75 meV to -5.23 meV
    #     hydro 4 f 9.8
    #     hydro 3 p 5.2
    #     hydro 3 s 4.3
    #     hydro 5 g 14.4
    #     hydro 3 d 6.2
    #  "Third tier" - improvements: -2.43 meV to -0.60 meV
    #     hydro 2 p 5.6
    #     hydro 2 s 1.4
    #     hydro 3 d 4.9
    #     hydro 4 f 11.2
    #  "Fourth tier" - improvements: -0.39 meV to -0.18 meV
    #     hydro 2 p 2.1
    #     hydro 5 g 16.4
    #     hydro 4 d 13.2
    #     hydro 3 s 13.6
    #     hydro 4 f 17.6
    #  Further basis functions - improvements: -0.08 meV and below
    #     hydro 3 s 2
    #     hydro 3 p 6
    #     hydro 4 d 20
    ################################################################################
    #
    #  FHI-aims code project
    #  VB, Fritz-Haber Institut, 2009
    #
    #  Suggested "light" defaults for N atom (to be pasted into control.in file)
    #  Be sure to double-check any results obtained with these settings for post-processing,
    #  e.g., with the "tight" defaults and larger basis sets.
    #
    ################################################################################
      species        N
    #     global species definitions
        nucleus             7
        mass                14.0067
    #
        l_hartree           4
    #
        cut_pot             3.5  1.5  1.0
        basis_dep_cutoff    1e-4
    #
        radial_base         35 5.0
        radial_multiplier   1
        angular_grids       specified
          division   0.2599   50
          division   0.4601  110
          division   0.5885  194
          division   0.6503  302
    #      division   0.6939  434
    #      division   0.7396  590
    #      division   0.7632  770
    #      division   0.8122  974
    #      division   1.1604 1202
    #      outer_grid  974
          outer_grid  302
    ################################################################################
    #
    #  Definition of "minimal" basis
    #
    ################################################################################
    #     valence basis states
        valence      2  s   2.
        valence      2  p   3.
    #     ion occupancy
        ion_occ      2  s   1.
        ion_occ      2  p   2.
    ################################################################################
    #
    #  Suggested additional basis functions. For production calculations,
    #  uncomment them one after another (the most important basis functions are
    #  listed first).
    #
    #  Constructed for dimers: 1.0 A, 1.1 A, 1.5 A, 2.0 A, 3.0 A
    #
    ################################################################################
    #  "First tier" - improvements: -1193.42 meV to -220.60 meV
         hydro 2 p 1.8
         hydro 3 d 6.8
         hydro 3 s 5.8
    #  "Second tier" - improvements: -80.21 meV to -6.86 meV
    #     hydro 4 f 10.8
    #     hydro 3 p 5.8
    #     hydro 1 s 0.8
    #     hydro 5 g 16
    #     hydro 3 d 4.9
    #  "Third tier" - improvements: -4.29 meV to -0.53 meV
    #     hydro 3 s 16
    #     ionic 2 p auto
    #     hydro 3 d 6.6
    #     hydro 4 f 11.6
    #  "Fourth tier" - improvements: -0.75 meV to -0.25 meV
    #     hydro 2 p 4.5
    #     hydro 2 s 2.4
    #     hydro 5 g 14.4
    #     hydro 4 d 14.4
    #     hydro 4 f 16.8
    # Further basis functions - -0.21 meV and below
    #     hydro 3 p 14.8
    #     hydro 3 s 4.4
    #     hydro 3 d 19.6
    #     hydro 5 g 12.8
    ################################################################################
    #
    #  FHI-aims code project
    #  VB, Fritz-Haber Institut, 2009
    #
    #  Suggested "light" defaults for O atom (to be pasted into control.in file)
    #  Be sure to double-check any results obtained with these settings for post-processing,
    #  e.g., with the "tight" defaults and larger basis sets.
    #
    ################################################################################
      species        O
    #     global species definitions
        nucleus             8
        mass                15.9994
    #
        l_hartree           4
    #
        cut_pot             3.5  1.5  1.0
        basis_dep_cutoff    1e-4
    #
        radial_base         36 5.0
        radial_multiplier   1
         angular_grids specified
          division   0.2659   50
          division   0.4451  110
          division   0.6052  194
          division   0.7543  302
    #      division   0.8014  434
    #      division   0.8507  590
    #      division   0.8762  770
    #      division   0.9023  974
    #      division   1.2339 1202
    #      outer_grid 974
          outer_grid 302
    ################################################################################
    #
    #  Definition of "minimal" basis
    #
    ################################################################################
    #     valence basis states
        valence      2  s   2.
        valence      2  p   4.
    #     ion occupancy
        ion_occ      2  s   1.
        ion_occ      2  p   3.
    ################################################################################
    #
    #  Suggested additional basis functions. For production calculations,
    #  uncomment them one after another (the most important basis functions are
    #  listed first).
    #
    #  Constructed for dimers: 1.0 A, 1.208 A, 1.5 A, 2.0 A, 3.0 A
    #
    ################################################################################
    #  "First tier" - improvements: -699.05 meV to -159.38 meV
         hydro 2 p 1.8
         hydro 3 d 7.6
         hydro 3 s 6.4
    #  "Second tier" - improvements: -49.91 meV to -5.39 meV
    #     hydro 4 f 11.6
    #     hydro 3 p 6.2
    #     hydro 3 d 5.6
    #     hydro 5 g 17.6
    #     hydro 1 s 0.75
    #  "Third tier" - improvements: -2.83 meV to -0.50 meV
    #     ionic 2 p auto
    #     hydro 4 f 10.8
    #     hydro 4 d 4.7
    #     hydro 2 s 6.8
    #  "Fourth tier" - improvements: -0.40 meV to -0.12 meV
    #     hydro 3 p 5
    #     hydro 3 s 3.3
    #     hydro 5 g 15.6
    #     hydro 4 f 17.6
    #     hydro 4 d 14
    # Further basis functions - -0.08 meV and below
    #     hydro 3 s 2.1
    #     hydro 4 d 11.6
    #     hydro 3 p 16
    #     hydro 2 s 17.2
    ################################################################################
    #
    #  FHI-aims code project
    #  VB, Fritz-Haber Institut, 2009
    #
    #  Suggested "light" defaults for S atom (to be pasted into control.in file)
    #  Be sure to double-check any results obtained with these settings for post-processing,
    #  e.g., with the "tight" defaults and larger basis sets.
    #
    ################################################################################
      species        S
    #     global species definitions
        nucleus             16
        mass                32.065
    #
        l_hartree           4
    #
        cut_pot             3.5          1.5  1.0
        basis_dep_cutoff    1e-4
    #
        radial_base         44 5.0
        radial_multiplier   1
        angular_grids       specified
          division   0.4665  110
          division   0.5810  194
          division   0.7139  302
    #      division   0.8274  434
    #      division   0.9105  590
    #      division   1.0975  770
    #      division   1.2028  974
    #      outer_grid  974
          outer_grid  302
    ################################################################################
    #
    #  Definition of "minimal" basis
    #
    ################################################################################
    #     valence basis states
        valence      3  s   2.
        valence      3  p   4.
    #     ion occupancy
        ion_occ      3  s   1.
        ion_occ      3  p   3.
    ################################################################################
    #
    #  Suggested additional basis functions. For production calculations,
    #  uncomment them one after another (the most important basis functions are
    #  listed first).
    #
    #  Constructed for dimers: 1.6 A, 1.9 A, 2.5 A, 3.25 A, 4.0 A
    #
    ################################################################################
    #  "First tier" - improvements: -652.81 meV to -45.53 meV
         ionic 3 d auto
         hydro 2 p 1.8
    #     hydro 4 f 7
         ionic 3 s auto
    #  "Second tier" - improvements: -30.20 meV to -1.74 meV
    #     hydro 4 d 6.2
    #     hydro 5 g 10.8
    #     hydro 4 p 4.9
    #     hydro 5 f 10
    #     hydro 1 s 0.8
    #  "Third tier" - improvements: -1.04 meV to -0.20 meV
    #     hydro 3 d 3.9
    #     hydro 3 d 2.7
    #     hydro 5 g 12
    #     hydro 4 p 10.4
    #     hydro 5 f 12.4
    #     hydro 2 s 1.9
    #  "Fourth tier" - improvements: -0.35 meV to -0.06 meV
    #     hydro 4 d 10.4
    #     hydro 4 p 7.2
    #     hydro 4 d 10
    #     hydro 5 g 19.2
    #     hydro 4 s 12
  
  
  -----------------------------------------------------------------------
  Completed first pass over input file control.in .
  -----------------------------------------------------------------------
  
  
  -----------------------------------------------------------------------
  Parsing geometry.in (first pass over file, find array dimensions only).
  The contents of geometry.in will be repeated verbatim below
  unless switched off by setting 'verbatim_writeout .false.' .
  in the first line of geometry.in .
  -----------------------------------------------------------------------
  
  atom 0.61403 1.65155 -0.54900 O
  atom -0.21740 0.81827 -1.27528 C
  atom -0.51226 1.20233 -2.24345 H
  atom -0.44040 -0.29971 -0.53553 C
  atom -0.98820 -1.66709 -0.15380 C
  atom -0.65317 -2.50181 -0.78295 H
  atom -2.07885 -1.72543 -0.04452 H
  atom -0.19440 -1.50872 1.21064 C
  atom 0.59649 -2.25331 1.36901 H
  atom -0.82808 -1.47296 2.10619 H
  atom 0.27225 -0.15834 0.68667 C
  atom 0.90919 1.04177 0.65665 C
  atom 1.55883 1.61239 1.30794 H
  
  -----------------------------------------------------------------------
  Completed first pass over input file geometry.in .
  -----------------------------------------------------------------------
  

  Basic array size parameters:
  | Number of species                 :        5
  | Number of atoms                   :       13
  | Max. basis fn. angular momentum   :        2
  | Max. atomic/ionic basis occupied n:        3
  | Max. number of basis fn. types    :        3
  | Max. radial fns per species/type  :        5
  | Max. logarithmic grid size        :     1357
  | Max. radial integration grid size :       44
  | Max. angular integration grid size:      302
  | Max. angular grid division number :        8
  | Radial grid for Hartree potential :     1357
  | Number of spin channels           :        1

------------------------------------------------------------
          Reading file control.in.
------------------------------------------------------------
  XC: Using PBE gradient-corrected functionals.
  Spin treatment: No spin polarisation.
  Non-relativistic treatment of kinetic energy.
  override_relativity: Explicitly overriding any built-in relativity checks.
  If you use this flag, you should really know what you are doing.
  Charge =   0.000000E+00: Neutral system requested explicitly.
  Occupation type: Gaussian broadening, width =   0.100000E+00 eV.
  Using pulay charge density mixing.
  Pulay mixing - number of memorized iterations:   10
  Charge density mixing - mixing parameter:     0.3000
  Convergence accuracy of self-consistent charge density:  0.1000E-03
  Convergence accuracy of sum of eigenvalues:  0.1000E-01
  Convergence accuracy of total energy:  0.1000E-03
  Convergence accuracy of forces:  0.1000E-01
  Maximum number of s.-c. iterations  :   500
  Hessian information is explicitly not written to geometry.in.next_step for relaxation restart.
  Geometry relaxation: Modified BFGS - TRM (trust radius method) for lattice optimization.
  Convergence accuracy for geometry relaxation: Maximum force <   0.100000E-01 eV/A.
 
  Reading configuration options for species H                   .
  | Found nuclear charge :   1.0000
  | Found atomic mass :    1.00794000000000      amu
  | Found l_max for Hartree potential  :   4
  | Found cutoff potl. onset [A], width [A], scale factor :    3.50000    1.50000    1.00000
  | Threshold for basis-dependent cutoff potential is   0.100000E-03
  | Found data for basic radial integration grid :    24 points, outermost radius =    5.000 A
  | Found multiplier for basic radial grid :   1
  | Found angular grid specification: user-specified.
  | Specified grid contains     5 separate shells.
  | Check grid settings after all constraints further below.
  | Found free-atom valence shell :  1 s   1.000
  | Found free-ion valence shell :  1 s   0.500
  | Found hydrogenic basis function :  2 s   2.100
  | Found hydrogenic basis function :  2 p   3.500
  Species H                   : Missing cutoff potential type.
  Defaulting to exp(1/x)/(1-x)^2 type cutoff potential.
  Species H : No 'logarithmic' tag. Using default grid for free atom:
  | Default logarithmic grid data [bohr] : 0.1000E-03 0.1000E+03 0.1012E+01
  Species H : On-site basis accuracy parameter (for Gram-Schmidt orthonormalisation) not specified.
  Using default value basis_acc =  0.1000000E-03.
  Species H                   : Using default innermost maximum threshold i_radial=  2 for radial functions.
  Species H                   : Default cutoff onset for free atom density etc. : 0.35000000E+01 AA.
  Species H                   : Basic radial grid will be enhanced according to radial_multiplier =   1, to contain    24 grid points.
 
  Reading configuration options for species C                   .
  | Found nuclear charge :   6.0000
  | Found atomic mass :    12.0107000000000      amu
  | Found l_max for Hartree potential  :   4
  | Found cutoff potl. onset [A], width [A], scale factor :    3.50000    1.50000    1.00000
  | Threshold for basis-dependent cutoff potential is   0.100000E-03
  | Found data for basic radial integration grid :    34 points, outermost radius =    5.000 A
  | Found multiplier for basic radial grid :   1
  | Found angular grid specification: user-specified.
  | Specified grid contains     5 separate shells.
  | Check grid settings after all constraints further below.
  | Found free-atom valence shell :  2 s   2.000
  | Found free-atom valence shell :  2 p   2.000
  | Found free-ion valence shell :  2 s   1.000
  | Found free-ion valence shell :  2 p   1.000
  | Found hydrogenic basis function :  2 p   1.700
  | Found hydrogenic basis function :  3 d   6.000
  | Found hydrogenic basis function :  2 s   4.900
  Species C                   : Missing cutoff potential type.
  Defaulting to exp(1/x)/(1-x)^2 type cutoff potential.
  Species C : No 'logarithmic' tag. Using default grid for free atom:
  | Default logarithmic grid data [bohr] : 0.1000E-03 0.1000E+03 0.1012E+01
  Species C : On-site basis accuracy parameter (for Gram-Schmidt orthonormalisation) not specified.
  Using default value basis_acc =  0.1000000E-03.
  Species C                   : Using default innermost maximum threshold i_radial=  2 for radial functions.
  Species C                   : Default cutoff onset for free atom density etc. : 0.35000000E+01 AA.
  Species C                   : Basic radial grid will be enhanced according to radial_multiplier =   1, to contain    34 grid points.
 
  Reading configuration options for species N                   .
  | Found nuclear charge :   7.0000
  | Found atomic mass :    14.0067000000000      amu
  | Found l_max for Hartree potential  :   4
  | Found cutoff potl. onset [A], width [A], scale factor :    3.50000    1.50000    1.00000
  | Threshold for basis-dependent cutoff potential is   0.100000E-03
  | Found data for basic radial integration grid :    35 points, outermost radius =    5.000 A
  | Found multiplier for basic radial grid :   1
  | Found angular grid specification: user-specified.
  | Specified grid contains     5 separate shells.
  | Check grid settings after all constraints further below.
  | Found free-atom valence shell :  2 s   2.000
  | Found free-atom valence shell :  2 p   3.000
  | Found free-ion valence shell :  2 s   1.000
  | Found free-ion valence shell :  2 p   2.000
  | Found hydrogenic basis function :  2 p   1.800
  | Found hydrogenic basis function :  3 d   6.800
  | Found hydrogenic basis function :  3 s   5.800
  Species N                   : Missing cutoff potential type.
  Defaulting to exp(1/x)/(1-x)^2 type cutoff potential.
  Species N : No 'logarithmic' tag. Using default grid for free atom:
  | Default logarithmic grid data [bohr] : 0.1000E-03 0.1000E+03 0.1012E+01
  Species N : On-site basis accuracy parameter (for Gram-Schmidt orthonormalisation) not specified.
  Using default value basis_acc =  0.1000000E-03.
  Species N                   : Using default innermost maximum threshold i_radial=  2 for radial functions.
  Species N                   : Default cutoff onset for free atom density etc. : 0.35000000E+01 AA.
  Species N                   : Basic radial grid will be enhanced according to radial_multiplier =   1, to contain    35 grid points.
 
  Reading configuration options for species O                   .
  | Found nuclear charge :   8.0000
  | Found atomic mass :    15.9994000000000      amu
  | Found l_max for Hartree potential  :   4
  | Found cutoff potl. onset [A], width [A], scale factor :    3.50000    1.50000    1.00000
  | Threshold for basis-dependent cutoff potential is   0.100000E-03
  | Found data for basic radial integration grid :    36 points, outermost radius =    5.000 A
  | Found multiplier for basic radial grid :   1
  | Found angular grid specification: user-specified.
  | Specified grid contains     5 separate shells.
  | Check grid settings after all constraints further below.
  | Found free-atom valence shell :  2 s   2.000
  | Found free-atom valence shell :  2 p   4.000
  | Found free-ion valence shell :  2 s   1.000
  | Found free-ion valence shell :  2 p   3.000
  | Found hydrogenic basis function :  2 p   1.800
  | Found hydrogenic basis function :  3 d   7.600
  | Found hydrogenic basis function :  3 s   6.400
  Species O                   : Missing cutoff potential type.
  Defaulting to exp(1/x)/(1-x)^2 type cutoff potential.
  Species O : No 'logarithmic' tag. Using default grid for free atom:
  | Default logarithmic grid data [bohr] : 0.1000E-03 0.1000E+03 0.1012E+01
  Species O : On-site basis accuracy parameter (for Gram-Schmidt orthonormalisation) not specified.
  Using default value basis_acc =  0.1000000E-03.
  Species O                   : Using default innermost maximum threshold i_radial=  2 for radial functions.
  Species O                   : Default cutoff onset for free atom density etc. : 0.35000000E+01 AA.
  Species O                   : Basic radial grid will be enhanced according to radial_multiplier =   1, to contain    36 grid points.
 
  Reading configuration options for species S                   .
  | Found nuclear charge :  16.0000
  | Found atomic mass :    32.0650000000000      amu
  | Found l_max for Hartree potential  :   4
  | Found cutoff potl. onset [A], width [A], scale factor :    3.50000    1.50000    1.00000
  | Threshold for basis-dependent cutoff potential is   0.100000E-03
  | Found data for basic radial integration grid :    44 points, outermost radius =    5.000 A
  | Found multiplier for basic radial grid :   1
  | Found angular grid specification: user-specified.
  | Specified grid contains     4 separate shells.
  | Check grid settings after all constraints further below.
  | Found free-atom valence shell :  3 s   2.000
  | Found free-atom valence shell :  3 p   4.000
  | Found free-ion valence shell :  3 s   1.000
  | Found free-ion valence shell :  3 p   3.000
  | Found ionic basis function :  3 d , default cutoff radius.
  | Found hydrogenic basis function :  2 p   1.800
  | Found ionic basis function :  3 s , default cutoff radius.
  Species S                   : Missing cutoff potential type.
  Defaulting to exp(1/x)/(1-x)^2 type cutoff potential.
  Species S : No 'logarithmic' tag. Using default grid for free atom:
  | Default logarithmic grid data [bohr] : 0.1000E-03 0.1000E+03 0.1012E+01
  | Will include ionic basis functions of  2.0-fold positive S                    ion.
  Species S : On-site basis accuracy parameter (for Gram-Schmidt orthonormalisation) not specified.
  Using default value basis_acc =  0.1000000E-03.
  Species S                   : Using default innermost maximum threshold i_radial=  2 for radial functions.
  Species S                   : Default cutoff onset for free atom density etc. : 0.35000000E+01 AA.
  Species S                   : Basic radial grid will be enhanced according to radial_multiplier =   1, to contain    44 grid points.
 
  Finished reading input file 'control.in'. Consistency checks are next.
 
  MPI_IN_PLACE appears to work with this MPI implementation.
  | Keeping use_mpi_in_place .true. (see manual).
  Target number of points in a grid batch is not set. Defaulting to  100
  Method for grid partitioning is not set. Defaulting to parallel hash+maxmin partitioning.
  Batch size limit is not set. Defaulting to    200
  By default, will store active basis functions for each batch.
  If in need of memory, prune_basis_once .false. can be used to disable this option.
  communication_type for Hartree potential was not specified.
  Defaulting to calc_hartree .
  Pulay mixer: Number of initial linear mixing iterations not set.
  Defaulting to    0 iterations.
  Work space size for distributed Hartree potential not set.
  Defaulting to   0.200000E+03 MB.
  Algorithm-dependent basis array size parameters:
  | n_max_pulay                         :       10
  Presetting      1001 iterations before the initial mixing cycle
  is restarted anyway using the sc_init_iter criterion / keyword.
  Presetting a factor      1.000 between actual scf density residual
  and density convergence criterion sc_accuracy_rho below which sc_init_iter
  takes no effect.
  No maximum number of relaxation steps, defaulting to     1000
  Default initial Hessian is Lindh matrix (thres = 15.00) plus  0.200000E+01 eV/A^2 times unity.
  No maximum energy tolerance for TRM/BFGS moves, defaulting to   0.100000E-02
  Maximum energy tolerance by which TRM/BFGS trajectory may increase over multiple steps:   0.300000E-02
  No harmonic length scale. Defaulting to   0.250000E-01 A.
  No trust radius initializer. Defaulting to   0.200000E+00 A.
  Handling of forces: Unphysical translation and rotation will be removed from forces.
  No accuracy limit for integral partition fn. given. Defaulting to  0.1000E-14.
  No threshold value for u(r) in integrations given. Defaulting to  0.1000E-05.
  No accuracy for occupation numbers given. Defaulting to  0.1000E-12.
  No threshold value for occupation numbers given. Defaulting to  0.0000E+00.
  No accuracy for fermi level given. Defaulting to  0.1000E-19.
  Maximum # of iterations to find E_F not set. Defaulting to  200.
  Preferred method for the eigenvalue solver ('KS_method') not specified in 'control.in'.
  Calling BLACS routine to test compilation state
  Since ScaLAPACK support is enabled, defaulting to ELPA (via ELSI).
  Will not use alltoall communication since running on < 1024 CPUs.
  Threshold for basis singularities not set.
  Default threshold for basis singularities:  0.1000E-04
  partition_type (choice of integration weights) for integrals was not specified.
  | Using a version of the partition function of Stratmann and coworkers ('stratmann_sparse').
  | At each grid point, the set of atoms used to build the partition table is smoothly restricted to
  | only those atoms whose free-atom density would be non-zero at that grid point.
  Partitioning for Hartree potential was not defined. Using partition_type for integrals.
  | Adjusted default value of keyword multip_moments_threshold to:       0.10000000E-11
  | This value may affect high angular momentum components of the Hartree potential in periodic systems.
  No q(lm)/r^(l+1) cutoff set for long-range Hartree potential.
  | Using default value of  0.100000E-09 .
  | Verify using the multipole_threshold keyword.
  Defaulting to new monopole extrapolation.
  Density update method: automatic selection selected.
  Geometry relaxation: A file "geometry.in.next_step" is written out by default after each step.
  | This file contains the geometry of the current relaxation step as well as
  | the current Hessian matrix needed to restart the relaxation algorithm.
  | If you do not want part or all of this information, use the keywords
  | "write_restart_geometry" or "hessian_to_restart_geometry" to switch the output off.
------------------------------------------------------------


------------------------------------------------------------
          Reading geometry description geometry.in.
------------------------------------------------------------
  Input structure read successfully.
  The structure contains       13 atoms,  and a total of         50.000 electrons.

  Input geometry:
  | No unit cell requested.
  | Atomic structure:
  |       Atom                x [A]            y [A]            z [A]
  |    1: Species O             0.61403000        1.65155000       -0.54900000
  |    2: Species C            -0.21740000        0.81827000       -1.27528000
  |    3: Species H            -0.51226000        1.20233000       -2.24345000
  |    4: Species C            -0.44040000       -0.29971000       -0.53553000
  |    5: Species C            -0.98820000       -1.66709000       -0.15380000
  |    6: Species H            -0.65317000       -2.50181000       -0.78295000
  |    7: Species H            -2.07885000       -1.72543000       -0.04452000
  |    8: Species C            -0.19440000       -1.50872000        1.21064000
  |    9: Species H             0.59649000       -2.25331000        1.36901000
  |   10: Species H            -0.82808000       -1.47296000        2.10619000
  |   11: Species C             0.27225000       -0.15834000        0.68667000
  |   12: Species C             0.90919000        1.04177000        0.65665000
  |   13: Species H             1.55883000        1.61239000        1.30794000
  |

  | The smallest distance between any two atoms is         1.08249603 AA.
  |
  | The first atom of this pair is atom number                      2 .
  | The second atom of this pair is atom number                     3 .

  Number of empty states per atom not set in control.in - providing a guess from actual geometry.
  | Total number of empty states used during s.c.f. cycle:       30
  If you use a very high smearing, use empty_states (per atom!) in control.in to increase this value.

  Structure-dependent array size parameters: 
  | Maximum number of distinct radial functions  :       29
  | Maximum number of basis functions            :      128
  | Number of Kohn-Sham states (occupied + empty):       55
------------------------------------------------------------

------------------------------------------------------------
          Preparing all fixed parts of the calculation.
------------------------------------------------------------
  Determining machine precision:
    2.225073858507201E-308
  Setting up grids for atomic and cluster calculations.

  Creating wave function, potential, and density for free atoms.

  Species: H

  List of occupied orbitals and eigenvalues:
    n    l              occ      energy [Ha]    energy [eV]
    1    0           1.0000        -0.237589        -6.4651


  Species: C

  List of occupied orbitals and eigenvalues:
    n    l              occ      energy [Ha]    energy [eV]
    1    0           2.0000       -10.038835      -273.1706
    2    0           2.0000        -0.502696       -13.6791
    2    1           2.0000        -0.191971        -5.2238


  Species: N

  List of occupied orbitals and eigenvalues:
    n    l              occ      energy [Ha]    energy [eV]
    1    0           2.0000       -14.128000      -384.4424
    2    0           2.0000        -0.681077       -18.5330
    2    1           3.0000        -0.259788        -7.0692


  Species: O

  List of occupied orbitals and eigenvalues:
    n    l              occ      energy [Ha]    energy [eV]
    1    0           2.0000       -18.898188      -514.2459
    2    0           2.0000        -0.878505       -23.9053
    2    1           4.0000        -0.331779        -9.0282


  Species: S

  List of occupied orbitals and eigenvalues:
    n    l              occ      energy [Ha]    energy [eV]
    1    0           2.0000       -88.105825     -2397.4815
    2    0           2.0000        -7.730144      -210.3479
    3    0           2.0000        -0.627748       -17.0819
    2    1           6.0000        -5.747971      -156.4103
    3    1           4.0000        -0.255786        -6.9603

  Creating fixed part of basis set: Ionic, confined, hydrogenic.
 
  H                    hydrogenic:
 
  List of hydrogenic basis orbitals: 
    n    l      effective z      eigenvalue [eV]  inner max. [A]     outer max. [A]     outer radius [A]   
    2    0         2.100000       -14.9728           0.193243           1.317208           4.583499
    2    1         3.500000       -41.6669           0.602369           0.602369           3.723403
 
 
  C                    hydrogenic:
 
  List of hydrogenic basis orbitals: 
    n    l      effective z      eigenvalue [eV]  inner max. [A]     outer max. [A]     outer radius [A]   
    2    1         1.700000        -9.7616           1.230570           1.230570           4.607917
    3    2         6.000000       -54.4224           0.792453           0.792453           3.883070
    2    0         4.900000       -81.6679           0.082559           0.562749           3.078220
 
 
  N                    hydrogenic:
 
  List of hydrogenic basis orbitals: 
    n    l      effective z      eigenvalue [eV]  inner max. [A]     outer max. [A]     outer radius [A]   
    2    1         1.800000       -10.9749           1.177451           1.177451           4.573712
    3    2         6.800000       -69.9026           0.704619           0.704619           3.538137
    3    0         5.800000       -50.8545           0.067388           1.191934           4.250239
 
 
  O                    hydrogenic:
 
  List of hydrogenic basis orbitals: 
    n    l      effective z      eigenvalue [eV]  inner max. [A]     outer max. [A]     outer radius [A]   
    2    1         1.800000       -10.9749           1.164242           1.164242           4.578029
    3    2         7.600000       -87.3180           0.624125           0.624125           3.251020
    3    0         6.400000       -61.9207           0.061167           1.081902           4.001998
 
 
  S                    ion:

  List of free ionic orbitals and eigenvalues:
    n    l      energy [Ha]    energy [eV]
    1    0       -89.127201     -2425.2745
    2    0        -8.724378      -237.4024
    3    0        -1.464668       -39.8556
    2    1        -6.744348      -183.5230
    3    1        -1.048520       -28.5317


  List of ionic basis orbitals and eigenvalues:
    n    l      energy [Ha]    energy [eV]    outer radius [A]
    3    2        -0.496135       -13.5005       4.539062
    3    0        -1.464653       -39.8552       3.642502

 
  S                    hydrogenic:
 
  List of hydrogenic basis orbitals: 
    n    l      effective z      eigenvalue [eV]  inner max. [A]     outer max. [A]     outer radius [A]   
    2    1         1.800000       -10.9749           1.168531           1.168531           4.594893
 

  Adding cutoff potential to free-atom effective potential.
  Creating atomic-like basis functions for current effective potential.

  Species H                   :

  List of atomic basis orbitals and eigenvalues:
    n    l      energy [Ha]    energy [eV]    outer radius [A]
    1    0        -0.237589        -6.4651       4.527807


  Species C                   :

  List of atomic basis orbitals and eigenvalues:
    n    l      energy [Ha]    energy [eV]    outer radius [A]
    1    0       -10.038835      -273.1706       1.934409
    2    0        -0.502696       -13.6791       4.496620
    2    1        -0.191971        -5.2238       4.551928


  Species N                   :

  List of atomic basis orbitals and eigenvalues:
    n    l      energy [Ha]    energy [eV]    outer radius [A]
    1    0       -14.128000      -384.4424       1.637919
    2    0        -0.681077       -18.5330       4.463241
    2    1        -0.259788        -7.0692       4.518138


  Species O                   :

  List of atomic basis orbitals and eigenvalues:
    n    l      energy [Ha]    energy [eV]    outer radius [A]
    1    0       -18.898188      -514.2459       1.415765
    2    0        -0.878505       -23.9053       4.413171
    2    1        -0.331779        -9.0282       4.522403


  Species S                   :

  List of atomic basis orbitals and eigenvalues:
    n    l      energy [Ha]    energy [eV]    outer radius [A]
    1    0       -88.105825     -2397.4815       0.682391
    2    0        -7.730144      -210.3479       2.317169
    3    0        -0.627748       -17.0819       4.483910
    2    1        -5.747971      -156.4103       2.555240
    3    1        -0.255786        -6.9603       4.539062

  Assembling full basis from fixed parts.
  | Species H :   atomic orbital   1 s accepted.
  | Species H :    hydro orbital   2 s accepted.
  | Species H :    hydro orbital   2 p accepted.
  | Species C :   atomic orbital   1 s accepted.
  | Species C :    hydro orbital   2 s accepted.
  | Species C :   atomic orbital   2 s accepted.
  | Species C :   atomic orbital   2 p accepted.
  | Species C :    hydro orbital   2 p accepted.
  | Species C :    hydro orbital   3 d accepted.
  | Species N :   atomic orbital   1 s accepted.
  | Species N :    hydro orbital   3 s accepted.
  | Species N :   atomic orbital   2 s accepted.
  | Species N :   atomic orbital   2 p accepted.
  | Species N :    hydro orbital   2 p accepted.
  | Species N :    hydro orbital   3 d accepted.
  | Species O :   atomic orbital   1 s accepted.
  | Species O :    hydro orbital   3 s accepted.
  | Species O :   atomic orbital   2 s accepted.
  | Species O :   atomic orbital   2 p accepted.
  | Species O :    hydro orbital   2 p accepted.
  | Species O :    hydro orbital   3 d accepted.
  | Species S :   atomic orbital   1 s accepted.
  | Species S :   atomic orbital   2 s accepted.
  | Species S :    ionic orbital   3 s accepted.
  | Species S :   atomic orbital   3 s accepted.
  | Species S :   atomic orbital   2 p accepted.
  | Species S :   atomic orbital   3 p accepted.
  | Species S :    hydro orbital   2 p accepted.
  | Species S :    ionic orbital   3 d accepted.
 
  Basis size parameters after reduction:
  | Total number of radial functions:       29
  | Total number of basis functions :      128
 
  Per-task memory consumption for arrays in subroutine allocate_ext:
  |           7.561808MB.
  Testing on-site integration grid accuracy.
  |  Species  Function  <phi|h_atom|phi> (log., in eV)  <phi|h_atom|phi> (rad., in eV)
           1        1                 -6.4663192853                 -6.4651273558
           1        2                 13.7111246313                 13.7170609718
           1        3                 25.2673269279                 25.2674696378
           2        4               -273.1705927641               -273.1705631568
           2        5                -10.7109323383                -10.7107120029
           2        6                 17.4381822266                 17.4352413244
           2        7                 -5.2255326521                 -5.2270484734
           2        8                  8.6835629259                  8.6603288385
           2        9                 27.4952418996                 27.4953360207
           3       10               -384.4424306495               -384.4423701208
           3       11                 12.5842251816                 12.5842222903
           3       12                -15.7264628251                -15.7264433455
           3       13                 -7.0696854293                 -7.0701769954
           3       14                  8.8090390882                  8.7901077751
           3       15                 35.9586762123                 35.9588528632
           4       16               -514.2458688638               -514.2457643834
           4       17                 15.1795651126                 15.1795290741
           4       18                -21.5359799773                -21.5360846186
           4       19                 -9.0283069236                 -9.0284644067
           4       20                  8.3027758564                  8.2834874195
           4       21                 45.8339351984                 45.8338762259
           5       22              -2397.4814915323              -2397.4804563634
           5       23               -210.3479335736               -210.3479265952
           5       24                -16.8079362322                -16.8079092816
           5       25                  7.5772439785                  7.5675998324
           5       26               -156.4102581151               -156.4102580951
           5       27                 -6.9617737483                 -6.9640288036
           5       28                  7.5696988470                  7.5151244831 ***
           5       29                  6.0973034823                  6.0928113248
 * Note: Onsite integrals marked "***" above are less accurate than
 * onsite_accuracy_threshold =    0.03000 eV. Usually, this is harmless.
 * When in doubt, tighten the "radial" and/or "radial_multiplier" flags to check.

  Preparing densities etc. for the partition functions (integrals / Hartree potential).

  Preparations completed.
  max(cpu_time)          :      0.499 s.
  Wall clock time (cpu1) :      0.737 s.
------------------------------------------------------------

------------------------------------------------------------
          Begin self-consistency loop: Initialization.

          Date     :  20190711, Time     :  214040.616
------------------------------------------------------------

  Initializing index lists of integration centers etc. from given atomic structure:
  | Number of centers in hartree potential         :        13
  | Number of centers in hartree multipole         :        13
  | Number of centers in electron density summation:        13
  | Number of centers in basis integrals           :        13
  | Number of centers in integrals                 :        13
  | Number of centers in hamiltonian               :        13

  Initializing relaxation algorithms.
  Finished initialization of distributed Hessian storage.
  | Global dimension:        39
  | BLACS block size:         1
  | Number of workers:       39

  * Using 56 tasks for Scalapack Eigenvalue solver.
  Detailed listing of tasks and assigned k-points:
  (for non-periodic systems, the "k-point" denotes an internal label only)
   Task     0 k-point     1 on d042
   Task     1 k-point     1 on d042
   Task     2 k-point     1 on d042
   Task     3 k-point     1 on d042
   Task     4 k-point     1 on d042
   Task     5 k-point     1 on d042
   Task     6 k-point     1 on d042
   Task     7 k-point     1 on d042
   Task     8 k-point     1 on d042
   Task     9 k-point     1 on d042
   Task    10 k-point     1 on d042
   Task    11 k-point     1 on d042
   Task    12 k-point     1 on d042
   Task    13 k-point     1 on d042
   Task    14 k-point     1 on d042
   Task    15 k-point     1 on d042
   Task    16 k-point     1 on d042
   Task    17 k-point     1 on d042
   Task    18 k-point     1 on d042
   Task    19 k-point     1 on d042
   Task    20 k-point     1 on d042
   Task    21 k-point     1 on d042
   Task    22 k-point     1 on d042
   Task    23 k-point     1 on d042
   Task    24 k-point     1 on d042
   Task    25 k-point     1 on d042
   Task    26 k-point     1 on d042
   Task    27 k-point     1 on d042
   Task    28 k-point     1 on d042
   Task    29 k-point     1 on d042
   Task    30 k-point     1 on d042
   Task    31 k-point     1 on d042
   Task    32 k-point     1 on d042
   Task    33 k-point     1 on d042
   Task    34 k-point     1 on d042
   Task    35 k-point     1 on d042
   Task    36 k-point     1 on d042
   Task    37 k-point     1 on d042
   Task    38 k-point     1 on d042
   Task    39 k-point     1 on d042
   Task    40 k-point     1 on d042
   Task    41 k-point     1 on d042
   Task    42 k-point     1 on d042
   Task    43 k-point     1 on d042
   Task    44 k-point     1 on d042
   Task    45 k-point     1 on d042
   Task    46 k-point     1 on d042
   Task    47 k-point     1 on d042
   Task    48 k-point     1 on d042
   Task    49 k-point     1 on d042
   Task    50 k-point     1 on d042
   Task    51 k-point     1 on d042
   Task    52 k-point     1 on d042
   Task    53 k-point     1 on d042
   Task    54 k-point     1 on d042
   Task    55 k-point     1 on d042
  Tasks:    56 split into      8 X      7 BLACS grid
  Calculating block size based on n_basis =          128  max_nprow =            8  max_npcol =            7
  ScaLAPACK block size set to:           16
  Allocating        0.004 MB for ovlp
  Allocating        0.004 MB for ham
  Allocating        0.004 MB for eigenvec
  Required Scalapack workspace - INTEGER:            1  REAL:             1
  Partitioning the integration grid into batches with parallel hashing+maxmin method.
  | Number of batches:      834
  | Maximal batch size:     182
  | Minimal batch size:       1
  | Average batch size:      83.237
  | Standard deviation of batch sizes:      18.489

  Integration load balanced across    56 MPI tasks.
  Work distribution over tasks is as follows:
  Task     0 has       1254 integration points.
  Task     1 has       1263 integration points.
  Task     2 has       1323 integration points.
  Task     3 has       1228 integration points.
  Task     4 has       1244 integration points.
  Task     5 has       1204 integration points.
  Task     6 has       1247 integration points.
  Task     7 has       1200 integration points.
  Task     8 has       1209 integration points.
  Task     9 has       1253 integration points.
  Task    10 has       1224 integration points.
  Task    11 has       1309 integration points.
  Task    12 has       1198 integration points.
  Task    13 has       1251 integration points.
  Task    14 has       1196 integration points.
  Task    15 has       1200 integration points.
  Task    16 has       1217 integration points.
  Task    17 has       1197 integration points.
  Task    18 has       1200 integration points.
  Task    19 has       1253 integration points.
  Task    20 has       1255 integration points.
  Task    21 has       1311 integration points.
  Task    22 has       1219 integration points.
  Task    23 has       1250 integration points.
  Task    24 has       1310 integration points.
  Task    25 has       1218 integration points.
  Task    26 has       1236 integration points.
  Task    27 has       1303 integration points.
  Task    28 has       1238 integration points.
  Task    29 has       1196 integration points.
  Task    30 has       1203 integration points.
  Task    31 has       1197 integration points.
  Task    32 has       1202 integration points.
  Task    33 has       1198 integration points.
  Task    34 has       1320 integration points.
  Task    35 has       1239 integration points.
  Task    36 has       1217 integration points.
  Task    37 has       1216 integration points.
  Task    38 has       1220 integration points.
  Task    39 has       1222 integration points.
  Task    40 has       1260 integration points.
  Task    41 has       1321 integration points.
  Task    42 has       1248 integration points.
  Task    43 has       1212 integration points.
  Task    44 has       1201 integration points.
  Task    45 has       1199 integration points.
  Task    46 has       1218 integration points.
  Task    47 has       1293 integration points.
  Task    48 has       1295 integration points.
  Task    49 has       1200 integration points.
  Task    50 has       1250 integration points.
  Task    51 has       1308 integration points.
  Task    52 has       1209 integration points.
  Task    53 has       1221 integration points.
  Task    54 has       1220 integration points.
  Task    55 has       1325 integration points.
  Initializing partition tables, free-atom densities, potentials, etc. across the integration grid (initialize_grid_storage).
  | initialize_grid_storage: Actual outermost partition radius vs. multipole_radius_free
  | (-- VB: in principle, multipole_radius_free should be larger, hence this output)
  | Species        1: Confinement radius =              4.999999999999999 AA, multipole_radius_free =              5.054417573612229 AA.
  | Species        1: outer_partition_radius set to              5.054417573612229 AA .
  | Species        2: Confinement radius =              4.999999999999999 AA, multipole_radius_free =              5.019602836301480 AA.
  | Species        2: outer_partition_radius set to              5.019602836301480 AA .
  | Species        3: Confinement radius =              4.999999999999999 AA, multipole_radius_free =              5.043624274424571 AA.
  | Species        3: outer_partition_radius set to              5.043624274424571 AA .
  | Species        4: Confinement radius =              4.999999999999999 AA, multipole_radius_free =              5.048384829883283 AA.
  | Species        4: outer_partition_radius set to              5.048384829883283 AA .
  | Species        5: Confinement radius =              4.999999999999999 AA, multipole_radius_free =              5.005414751018925 AA.
  | Species        5: outer_partition_radius set to              5.005414751018925 AA .
  | The sparse table of interatomic distances needs          1.93 kbyte instead of         1.35 kbyte of memory.
  | Using the partition_type stratmann_smoother will reduce your memory usage.
  | Net number of integration points:    69420
  | of which are non-zero points    :    60237
  Renormalizing the initial density to the exact electron count on the 3D integration grid.
  | Initial density: Formal number of electrons (from input files) :      50.0000000000
  | Integrated number of electrons on 3D grid     :      49.9999040345
  | Charge integration error                      :      -0.0000959655
  | Normalization factor for density and gradient :       1.0000019193
  Obtaining max. number of non-zero basis functions in each batch (get_n_compute_maxes).
  | Maximal number of non-zero basis functions:      128 in task     0
  | Maximal number of non-zero basis functions:      127 in task     1
  | Maximal number of non-zero basis functions:      127 in task     2
  | Maximal number of non-zero basis functions:      127 in task     3
  | Maximal number of non-zero basis functions:      127 in task     4
  | Maximal number of non-zero basis functions:      126 in task     5
  | Maximal number of non-zero basis functions:      127 in task     6
  | Maximal number of non-zero basis functions:      126 in task     7
  | Maximal number of non-zero basis functions:      121 in task     8
  | Maximal number of non-zero basis functions:      127 in task     9
  | Maximal number of non-zero basis functions:      127 in task    10
  | Maximal number of non-zero basis functions:      128 in task    11
  | Maximal number of non-zero basis functions:      126 in task    12
  | Maximal number of non-zero basis functions:      128 in task    13
  | Maximal number of non-zero basis functions:      127 in task    14
  | Maximal number of non-zero basis functions:      127 in task    15
  | Maximal number of non-zero basis functions:      123 in task    16
  | Maximal number of non-zero basis functions:      127 in task    17
  | Maximal number of non-zero basis functions:      127 in task    18
  | Maximal number of non-zero basis functions:      127 in task    19
  | Maximal number of non-zero basis functions:      128 in task    20
  | Maximal number of non-zero basis functions:      127 in task    21
  | Maximal number of non-zero basis functions:      127 in task    22
  | Maximal number of non-zero basis functions:      127 in task    23
  | Maximal number of non-zero basis functions:      128 in task    24
  | Maximal number of non-zero basis functions:      127 in task    25
  | Maximal number of non-zero basis functions:      127 in task    26
  | Maximal number of non-zero basis functions:      126 in task    27
  | Maximal number of non-zero basis functions:      126 in task    28
  | Maximal number of non-zero basis functions:      127 in task    29
  | Maximal number of non-zero basis functions:      126 in task    30
  | Maximal number of non-zero basis functions:      127 in task    31
  | Maximal number of non-zero basis functions:      128 in task    32
  | Maximal number of non-zero basis functions:      128 in task    33
  | Maximal number of non-zero basis functions:      127 in task    34
  | Maximal number of non-zero basis functions:      127 in task    35
  | Maximal number of non-zero basis functions:      126 in task    36
  | Maximal number of non-zero basis functions:      127 in task    37
  | Maximal number of non-zero basis functions:      127 in task    38
  | Maximal number of non-zero basis functions:      127 in task    39
  | Maximal number of non-zero basis functions:      126 in task    40
  | Maximal number of non-zero basis functions:      126 in task    41
  | Maximal number of non-zero basis functions:      127 in task    42
  | Maximal number of non-zero basis functions:      126 in task    43
  | Maximal number of non-zero basis functions:      128 in task    44
  | Maximal number of non-zero basis functions:      128 in task    45
  | Maximal number of non-zero basis functions:      127 in task    46
  | Maximal number of non-zero basis functions:      126 in task    47
  | Maximal number of non-zero basis functions:      128 in task    48
  | Maximal number of non-zero basis functions:      128 in task    49
  | Maximal number of non-zero basis functions:      127 in task    50
  | Maximal number of non-zero basis functions:      127 in task    51
  | Maximal number of non-zero basis functions:      127 in task    52
  | Maximal number of non-zero basis functions:      127 in task    53
  | Maximal number of non-zero basis functions:      126 in task    54
  | Maximal number of non-zero basis functions:      127 in task    55
  Selecting the method for density update.
  Loop over occupied states selected for charge density update.
  Allocating        0.054 MB for KS_eigenvector
  Integrating Hamiltonian matrix: batch-based integration.
  Time summed over all CPUs for integration: real work        1.412 s, elapsed        2.079 s => Consider using load balancing!
  Integrating overlap matrix.
  Time summed over all CPUs for integration: real work        0.399 s, elapsed        0.440 s
  Deallocating overlap matrix.

  Updating Kohn-Sham eigenvalues and eigenvectors using ELSI and the ELPA eigensolver.
  Overlap matrix is not singular
  | Lowest and highest eigenvalues :  0.2122E-02,  0.6052E+01
  Finished singularity check of overlap matrix
  | Time :     0.012 s
  Finished Cholesky decomposition
  | Time :     0.022 s
  Finished transformation to standard eigenproblem
  | Time :     0.002 s
  Starting ELPA eigensolver
  Finished solving standard eigenproblem
  | Time :     0.006 s
  Finished back-transformation of eigenvectors
  | Time :     0.001 s

  Obtaining occupation numbers and chemical potential using ELSI.
  | Chemical potential (Fermi level):    -7.67553803 eV
  Writing Kohn-Sham eigenvalues.

  State    Occupation    Eigenvalue [Ha]    Eigenvalue [eV]
      1       2.00000         -18.983189         -516.55887
      2       2.00000         -10.153861         -276.30061
      3       2.00000         -10.153785         -276.29856
      4       2.00000         -10.150450         -276.20779
      5       2.00000         -10.150130         -276.19910
      6       2.00000         -10.140546         -275.93829
      7       2.00000         -10.140532         -275.93792
      8       2.00000          -1.148742          -31.25885
      9       2.00000          -0.986690          -26.84920
     10       2.00000          -0.849129          -23.10599
     11       2.00000          -0.838023          -22.80377
     12       2.00000          -0.754753          -20.53787
     13       2.00000          -0.696471          -18.95195
     14       2.00000          -0.664869          -18.09202
     15       2.00000          -0.629153          -17.12014
     16       2.00000          -0.586758          -15.96649
     17       2.00000          -0.538099          -14.64241
     18       2.00000          -0.525396          -14.29675
     19       2.00000          -0.518129          -14.09899
     20       2.00000          -0.513320          -13.96816
     21       2.00000          -0.493246          -13.42190
     22       2.00000          -0.478523          -13.02126
     23       2.00000          -0.465177          -12.65810
     24       2.00000          -0.390738          -10.63253
     25       2.00000          -0.344306           -9.36905
     26       0.00000          -0.169291           -4.60665
     27       0.00000          -0.112990           -3.07462
     28       0.00000          -0.075361           -2.05069
     29       0.00000          -0.071256           -1.93898
     30       0.00000          -0.024556           -0.66821
     31       0.00000          -0.023673           -0.64417
     32       0.00000           0.002281            0.06207
     33       0.00000           0.007095            0.19307
     34       0.00000           0.015686            0.42683
     35       0.00000           0.022359            0.60842
     36       0.00000           0.041829            1.13823
     37       0.00000           0.092225            2.50958
     38       0.00000           0.117513            3.19768
     39       0.00000           0.135140            3.67734
     40       0.00000           0.189087            5.14531
     41       0.00000           0.189897            5.16736
     42       0.00000           0.192154            5.22877
     43       0.00000           0.210257            5.72138
     44       0.00000           0.247464            6.73385
     45       0.00000           0.256952            6.99203
     46       0.00000           0.268887            7.31679
     47       0.00000           0.285626            7.77229
     48       0.00000           0.321199            8.74026
     49       0.00000           0.334013            9.08895
     50       0.00000           0.359887            9.79302
     51       0.00000           0.378531           10.30034
     52       0.00000           0.386541           10.51832
     53       0.00000           0.397493           10.81634
     54       0.00000           0.447852           12.18666
     55       0.00000           0.478137           13.01078

  Highest occupied state (VBM) at     -9.36904703 eV
  | Occupation number:      2.00000000

  Lowest unoccupied state (CBM) at    -4.60664970 eV
  | Occupation number:      0.00000000

  Overall HOMO-LUMO gap:      4.76239733 eV.
  Calculating total energy contributions from superposition of free atom densities.

  Total energy components:
  | Sum of eigenvalues            :        -182.58803222 Ha       -4968.47314974 eV
  | XC energy correction          :         -42.19897339 Ha       -1148.29249043 eV
  | XC potential correction       :          54.22027559 Ha        1475.40876669 eV
  | Free-atom electrostatic energy:        -136.81477830 Ha       -3722.91953766 eV
  | Hartree energy correction     :           0.00000000 Ha           0.00000000 eV
  | vdW energy correction         :           0.00000000 Ha           0.00000000 eV
  | Entropy correction            :          -0.00000000 Ha          -0.00000000 eV
  | ---------------------------
  | Total energy                  :        -307.38150832 Ha       -8364.27641113 eV
  | Total energy, T -> 0          :        -307.38150832 Ha       -8364.27641113 eV  <-- do not rely on this value for anything but (periodic) metals
  | Electronic free energy        :        -307.38150832 Ha       -8364.27641113 eV

  Derived energy quantities:
  | Kinetic energy                :         304.41068517 Ha        8283.43619998 eV
  | Electrostatic energy          :        -569.59322010 Ha      -15499.42012068 eV
  | Energy correction for multipole
  | error in Hartree potential    :           0.00000000 Ha           0.00000000 eV
  | Sum of eigenvalues per atom                           :        -382.19024229 eV
  | Total energy (T->0) per atom                          :        -643.40587778 eV  <-- do not rely on this value for anything but (periodic) metals
  | Electronic free energy per atom                       :        -643.40587778 eV
  Initialize hartree_potential_storage
  Max. number of atoms included in rho_multipole:           13

  End scf initialization - timings             :  max(cpu_time)    wall_clock(cpu1)
  | Time for scf. initialization               :        0.223 s           0.278 s
  | Boundary condition initialization          :        0.001 s           0.015 s
  | Relaxation initialization                  :        0.005 s           0.009 s
  | Integration                                :        0.058 s           0.063 s
  | Solution of K.-S. eqns.                    :        0.050 s           0.063 s
  | Grid partitioning                          :        0.042 s           0.045 s
  | Preloading free-atom quantities on grid    :        0.007 s           0.009 s
  | Free-atom superposition energy             :        0.004 s           0.004 s
  | Total energy evaluation                    :        0.001 s           0.003 s

  Partial memory accounting:
  | Current value for overall tracked memory usage:
  |   Minimum:        0.136 MB (on task  1)
  |   Maximum:        0.142 MB (on task  0)
  |   Average:        0.137 MB
  | Peak value for overall tracked memory usage:
  |   Minimum:        0.818 MB (on task  8 after allocating wave)
  |   Maximum:        0.866 MB (on task  0 after allocating wave)
  |   Average:        0.854 MB
  | Largest tracked array allocation so far:
  |   Minimum:        0.175 MB (H_times_psi on task 40)
  |   Maximum:        0.272 MB (all_coords on task 29)
  |   Average:        0.224 MB
  Note:  These values currently only include a subset of arrays which are explicitly tracked.
  The "true" memory usage will be greater.
------------------------------------------------------------

------------------------------------------------------------
          Begin self-consistency iteration #    1

  Date     :  20190711, Time     :  214040.897
------------------------------------------------------------
  Evaluating new KS density.
  Integration grid: deviation in total charge (<rho> - N_e) =   2.842171E-14
  Pulay mixing of updated and previous charge densities.

  Evaluating partitioned Hartree potential by multipole expansion.
  | Analytical far-field extrapolation by fixed multipoles:
  | Hartree multipole sum: apparent total charge =  -0.268141E-03
  Summing up the Hartree potential.
  Time summed over all CPUs for potential: real work        1.032 s, elapsed        1.769 s
  | RMS charge density error from multipole expansion :   0.105755E-01

  Integrating Hamiltonian matrix: batch-based integration.
  Time summed over all CPUs for integration: real work        0.967 s, elapsed        1.611 s => Consider using load balancing!

  Updating Kohn-Sham eigenvalues and eigenvectors using ELSI and the ELPA eigensolver.
  Finished transformation to standard eigenproblem
  | Time :     0.001 s
  Starting ELPA eigensolver
  Finished solving standard eigenproblem
  | Time :     0.003 s
  Finished back-transformation of eigenvectors
  | Time :     0.000 s

  Obtaining occupation numbers and chemical potential using ELSI.
  | Chemical potential (Fermi level):    -5.81666230 eV
  Writing Kohn-Sham eigenvalues.

  State    Occupation    Eigenvalue [Ha]    Eigenvalue [eV]
      1       2.00000         -18.890229         -514.02929
      2       2.00000         -10.025744         -272.81439
      3       2.00000         -10.025736         -272.81416
      4       2.00000          -9.978472         -271.52804
      5       2.00000          -9.978396         -271.52596
      6       2.00000          -9.967658         -271.23376
      7       2.00000          -9.967335         -271.22500
      8       2.00000          -1.077743          -29.32687
      9       2.00000          -0.861975          -23.45554
     10       2.00000          -0.752210          -20.46866
     11       2.00000          -0.738972          -20.10844
     12       2.00000          -0.658889          -17.92929
     13       2.00000          -0.600021          -16.32739
     14       2.00000          -0.576062          -15.67546
     15       2.00000          -0.551959          -15.01956
     16       2.00000          -0.494619          -13.45927
     17       2.00000          -0.474276          -12.90572
     18       2.00000          -0.450588          -12.26113
     19       2.00000          -0.432883          -11.77934
     20       2.00000          -0.406021          -11.04840
     21       2.00000          -0.401225          -10.91789
     22       2.00000          -0.387394          -10.54153
     23       2.00000          -0.352737           -9.59847
     24       2.00000          -0.299050           -8.13757
     25       2.00000          -0.266311           -7.24668
     26       0.00000          -0.095423           -2.59660
     27       0.00000          -0.021211           -0.57718
     28       0.00000           0.003767            0.10252
     29       0.00000           0.011381            0.30971
     30       0.00000           0.029135            0.79280
     31       0.00000           0.048255            1.31309
     32       0.00000           0.059095            1.60805
     33       0.00000           0.061308            1.66829
     34       0.00000           0.075447            2.05301
     35       0.00000           0.077273            2.10270
     36       0.00000           0.092831            2.52605
     37       0.00000           0.153588            4.17935
     38       0.00000           0.194264            5.28618
     39       0.00000           0.195566            5.32162
     40       0.00000           0.242356            6.59485
     41       0.00000           0.250317            6.81147
     42       0.00000           0.255973            6.96539
     43       0.00000           0.266200            7.24367
     44       0.00000           0.307229            8.36013
     45       0.00000           0.309433            8.42011
     46       0.00000           0.323479            8.80230
     47       0.00000           0.333417            9.07273
     48       0.00000           0.372228           10.12885
     49       0.00000           0.425238           11.57132
     50       0.00000           0.435352           11.84654
     51       0.00000           0.447491           12.17685
     52       0.00000           0.452774           12.32059
     53       0.00000           0.483736           13.16311
     54       0.00000           0.512837           13.95501
     55       0.00000           0.545448           14.84239

  Highest occupied state (VBM) at     -7.24668062 eV
  | Occupation number:      2.00000000

  Lowest unoccupied state (CBM) at    -2.59659998 eV
  | Occupation number:      0.00000000

  Overall HOMO-LUMO gap:      4.65008064 eV.

  Total energy components:
  | Sum of eigenvalues            :        -177.23301117 Ha       -4822.75561302 eV
  | XC energy correction          :         -42.59616302 Ha       -1159.10057012 eV
  | XC potential correction       :          54.73615173 Ha        1489.44647069 eV
[...]
   Multipole                     :  0.255989E+00  0.686841E+00 -0.227623E+00
   Pulay + GGA                   : -0.510766E+01 -0.137377E+02  0.456565E+01
   Van der Waals                 : -0.411093E-02 -0.110406E-01  0.367397E-02
   ----------------------------------------------------------------
   Total forces(   1)            : -0.126665E-03 -0.695661E-03  0.191837E-04
  atom #    2
   Hellmann-Feynman              : -0.256712E+01 -0.331593E+01 -0.146116E+01
   Ionic forces                  :  0.000000E+00  0.000000E+00  0.000000E+00
   Multipole                     :  0.513504E-01  0.126167E+00 -0.327986E-01
   Pulay + GGA                   :  0.251804E+01  0.318978E+01  0.149489E+01
   Van der Waals                 : -0.286969E-03 -0.235493E-03 -0.302819E-03
   ----------------------------------------------------------------
   Total forces(   2)            :  0.198939E-02 -0.211792E-03  0.631566E-03
  atom #    3
   Hellmann-Feynman              :  0.288320E-01  0.350587E-01  0.170903E-01
   Ionic forces                  :  0.000000E+00  0.000000E+00  0.000000E+00
   Multipole                     : -0.570591E-01  0.441359E-01 -0.155429E+00
   Pulay + GGA                   :  0.277798E-01 -0.729679E-01  0.129838E+00
   Van der Waals                 :  0.119972E-02 -0.572098E-02  0.830498E-02
   ----------------------------------------------------------------
   Total forces(   3)            :  0.752418E-03  0.505659E-03 -0.196620E-03
  atom #    4
   Hellmann-Feynman              :  0.150852E+01  0.125906E+01  0.159009E+01
   Ionic forces                  :  0.000000E+00  0.000000E+00  0.000000E+00
   Multipole                     : -0.696134E-01 -0.617917E-02 -0.129184E+00
   Pulay + GGA                   : -0.144144E+01 -0.126331E+01 -0.145116E+01
   Van der Waals                 :  0.800813E-03  0.992295E-02 -0.891368E-02
   ----------------------------------------------------------------
   Total forces(   4)            : -0.173252E-02 -0.505312E-03  0.829050E-03
  atom #    5
   Hellmann-Feynman              : -0.315002E+00 -0.415706E+00 -0.171505E+00
   Ionic forces                  :  0.000000E+00  0.000000E+00  0.000000E+00
   Multipole                     : -0.178486E+00 -0.417762E+00  0.941803E-01
   Pulay + GGA                   :  0.497778E+00  0.835088E+00  0.807599E-01
   Van der Waals                 : -0.205856E-02 -0.187723E-03 -0.376700E-02
   ----------------------------------------------------------------
   Total forces(   5)            :  0.223237E-02  0.143240E-02 -0.331789E-03
  atom #    6
   Hellmann-Feynman              :  0.389229E-01  0.139115E-01  0.413509E-01
   Ionic forces                  :  0.000000E+00  0.000000E+00  0.000000E+00
   Multipole                     : -0.248471E-01 -0.125252E+00 -0.105842E+00
   Pulay + GGA                   : -0.104595E-01  0.111493E+00  0.711793E-01
   Van der Waals                 : -0.371869E-02 -0.938182E-04 -0.698172E-02
   ----------------------------------------------------------------
   Total forces(   6)            : -0.102421E-03  0.581282E-04 -0.293435E-03
  atom #    7
   Hellmann-Feynman              :  0.264527E-01  0.212655E-01  0.482846E-01
   Ionic forces                  :  0.000000E+00  0.000000E+00  0.000000E+00
   Multipole                     : -0.150420E+00 -0.568674E-01 -0.407034E-01
   Pulay + GGA                   :  0.127584E+00  0.361665E-01 -0.491311E-03
   Van der Waals                 : -0.365838E-02 -0.122838E-03 -0.700511E-02
   ----------------------------------------------------------------
   Total forces(   7)            : -0.416507E-04  0.441841E-03  0.847824E-04
  atom #    8
   Hellmann-Feynman              :  0.309874E-01 -0.343925E+00  0.422289E+00
   Ionic forces                  :  0.000000E+00  0.000000E+00  0.000000E+00
   Multipole                     : -0.128994E+00 -0.408977E+00  0.181086E+00
   Pulay + GGA                   :  0.964373E-01  0.753838E+00 -0.608253E+00
   Van der Waals                 :  0.223716E-02  0.668576E-03  0.361004E-02
   ----------------------------------------------------------------
   Total forces(   8)            :  0.667805E-03  0.160485E-02 -0.126783E-02
  atom #    9
   Hellmann-Feynman              : -0.171553E-01  0.284655E-02 -0.561769E-01
   Ionic forces                  :  0.000000E+00  0.000000E+00  0.000000E+00
   Multipole                     :  0.911587E-01 -0.102181E+00  0.937830E-01
   Pulay + GGA                   : -0.774982E-01  0.981350E-01 -0.443323E-01
   Van der Waals                 :  0.415733E-02  0.147782E-02  0.655769E-02
   ----------------------------------------------------------------
   Total forces(   9)            :  0.662477E-03  0.278481E-03 -0.168398E-03
  atom #   10
   Hellmann-Feynman              : -0.300119E-01  0.925478E-02 -0.491267E-01
   Ionic forces                  :  0.000000E+00  0.000000E+00  0.000000E+00
   Multipole                     : -0.343474E-01 -0.336785E-01  0.158802E+00
   Pulay + GGA                   :  0.604885E-01  0.227437E-01 -0.115838E+00
   Van der Waals                 :  0.421880E-02  0.145146E-02  0.653244E-02
   ----------------------------------------------------------------
   Total forces(  10)            :  0.347957E-03 -0.228581E-03  0.370238E-03
  atom #   11
   Hellmann-Feynman              : -0.744525E+00  0.808238E+00 -0.227155E+01
   Ionic forces                  :  0.000000E+00  0.000000E+00  0.000000E+00
   Multipole                     :  0.771050E-01  0.245498E-01  0.121172E+00
   Pulay + GGA                   :  0.658812E+00 -0.844215E+00  0.214991E+01
   Van der Waals                 :  0.707057E-02  0.111815E-01  0.188386E-02
   ----------------------------------------------------------------
   Total forces(  11)            : -0.153722E-02 -0.245175E-03  0.141737E-02
  atom #   12
   Hellmann-Feynman              :  0.307404E+00 -0.274184E+01  0.347775E+01
   Ionic forces                  :  0.000000E+00  0.000000E+00  0.000000E+00
   Multipole                     :  0.433753E-01  0.124231E+00 -0.503307E-01
   Pulay + GGA                   : -0.349994E+00  0.261669E+01 -0.342865E+01
   Van der Waals                 :  0.136594E-03 -0.153012E-03  0.430667E-03
   ----------------------------------------------------------------
   Total forces(  12)            :  0.922433E-03 -0.107505E-02 -0.804000E-03
  atom #   13
   Hellmann-Feynman              : -0.436432E-02  0.286371E-01 -0.380358E-01
   Ionic forces                  :  0.000000E+00  0.000000E+00  0.000000E+00
   Multipole                     :  0.101341E+00  0.755595E-01  0.115592E+00
   Pulay + GGA                   : -0.907218E-01 -0.962706E-01 -0.735950E-01
   Van der Waals                 : -0.598744E-02 -0.714785E-02 -0.402334E-02
   ----------------------------------------------------------------
   Total forces(  13)            :  0.267507E-03  0.778211E-03 -0.618041E-04

  Timings for VdW correction (Tkatchenko-Scheffler 2009 or later):
  | CPU time:        0.015 s, Wall clock time:        0.015 s.
  Removing unitary transformations (pure translations, rotations) from forces on atoms.
  Atomic forces before filtering:
  | Net force on center of mass :   0.430187E-02  0.213800E-02  0.228317E-03 eV/A
  | Net torque on center of mass:   0.682701E-03 -0.110823E-02 -0.206696E-02 eV
  Atomic forces after filtering:
  | Net force on center of mass :  -0.566230E-18 -0.435562E-18  0.108890E-18 eV/A
  | Net torque on center of mass:   0.000000E+00  0.142903E-17 -0.101415E-17 eV

  Energy and forces in a compact form:
  | Total energy uncorrected      :         -0.835750074318566E+04 eV
  | Total energy corrected        :         -0.835750074318566E+04 eV  <-- do not rely on this value for anything but (periodic) metals
  | Electronic free energy        :         -0.835750074318566E+04 eV
  Total atomic forces (unitary forces cleaned) [eV/Ang]:
  |    1         -0.574232703658874E-03         -0.826639117424193E-03         -0.282669901238138E-04
  |    2          0.156380435095458E-02         -0.386681261076413E-03          0.609425780601491E-03
  |    3          0.283887475855710E-03          0.311543636147454E-03         -0.213251248893560E-03
  |    4         -0.208542857266077E-02         -0.687190396149068E-03          0.818271124801495E-03
  |    5          0.195517690818720E-02          0.122603304042339E-02         -0.321725716207592E-03
  |    6         -0.355287125583001E-03         -0.135186287512618E-03         -0.287625810640326E-03
  |    7         -0.313377416568436E-03          0.183384544426169E-03          0.122684460163465E-03
  |    8          0.417419801283072E-03          0.144375742996237E-02         -0.127862181904466E-02
  |    9          0.451892676440574E-03          0.156461800197067E-03         -0.195418140614401E-03
  |   10          0.118397974441526E-03         -0.415713556073011E-03          0.375282912694530E-03
  |   11         -0.186608463598512E-02         -0.386423972135575E-03          0.138787970490325E-02
  |   12          0.534902087435485E-03         -0.118564607343915E-02         -0.855753264794352E-03
  |   13         -0.131070820141948E-03          0.702300212653577E-03         -0.132880992845524E-03

  ------------------------------------ 
  Start decomposition of the XC Energy 
  ------------------------------------ 
  X and C from original XC functional choice 
  Hartree-Fock Energy :          0.000000000 Ha              0.000000000 eV
  X Energy            :        -41.299327517 Ha          -1123.811880657 eV
  C Energy            :         -1.666234764 Ha            -45.340554825 eV
  Total XC Energy     :        -42.965562281 Ha          -1169.152435483 eV
  ------------------------------------ 
  LDA X and C from self-consistent density 
  X Energy LDA        :        -37.432203714 Ha          -1018.582087952 eV
  C Energy LDA        :         -3.232539248 Ha            -87.961868377 eV
  ------------------------------------ 
  End decomposition of the XC Energy 
  ------------------------------------ 

------------------------------------------------------------
  Relaxation / MD: End force evaluation.       :  max(cpu_time)    wall_clock(cpu1)
  | Time for this force evaluation             :        0.832 s           0.840 s

------------------------------------------------------------
  Geometry optimization: Attempting to predict improved coordinates.

  Removing unitary transformations (pure translations, rotations) from forces on atoms.
  Atomic forces before filtering:
  | Net force on center of mass :  -0.566230E-18 -0.435562E-18  0.108890E-18 eV/A
  | Net torque on center of mass:   0.000000E+00  0.142903E-17 -0.101415E-17 eV
  Atomic forces after filtering:
  | Net force on center of mass :  -0.130669E-18  0.000000E+00  0.108890E-18 eV/A
  | Net torque on center of mass:   0.000000E+00  0.142903E-17 -0.645370E-18 eV
  Net remaining forces (excluding translations, rotations) in present geometry:
  || Forces on atoms   || =   0.208543E-02 eV/A.
  Maximum force component is  0.208543E-02 eV/A.
  Present geometry is converged.

------------------------------------------------------------
  Final atomic structure:
                         x [A]             y [A]             z [A]
            atom         0.61619674        1.65602290       -0.55072323  O
            atom        -0.21747478        0.81949062       -1.27783053  C
            atom        -0.51340455        1.20265050       -2.24778340  H
            atom        -0.44104616       -0.29960885       -0.53607394  C
            atom        -0.98955294       -1.66968051       -0.15320087  C
            atom        -0.65198223       -2.50416466       -0.78376489  H
            atom        -2.08162161       -1.72511818       -0.04263372  H
            atom        -0.19514023       -1.51124426        1.21183940  C
            atom         0.59869225       -2.25519405        1.36762811  H
            atom        -0.83028187       -1.47416540        2.10802396  H
            atom         0.27193208       -0.15796398        0.68757418  C
            atom         0.91075151        1.04351283        0.65822929  C
            atom         1.56096180        1.61440303        1.31128564  H
------------------------------------------------------------
  |------------------------------------------------------
  | Final ELSI Output
  |------------------------------------------------------
  |
  | Physical Properties
  |   Number of electrons       :        0.50000000E+02
  |   Number of spins           :                     1
  |   Number of k-points        :                     1
  |   Number of states          :                    55
  |
  | Matrix Properties
  |   Matrix format             :           BLACS_DENSE
  |   Number of basis functions :                   128
  |   Matrix sparsity           :        0.24414062E-03
  |
  | Computational Details
  |   Parallel mode             :            MULTI_PROC
  |   Number of MPI tasks       :                    56
  |   Solver requested          :                  ELPA
  |   Number of ELSI calls      :                    37
  |
  |------------------------------------------------------
  | ELSI Project (c)  elsi-interchange.org
  |------------------------------------------------------

------------------------------------------------------------------------------
  Final output of selected total energy values:

  The following output summarizes some interesting total energy values
  at the end of a run (AFTER all relaxation, molecular dynamics, etc.).

  | Total energy of the DFT / Hartree-Fock s.c.f. calculation      :          -8357.500743186 eV
  | Final zero-broadening corrected energy (caution - metals only) :          -8357.500743186 eV
  | For reference only, the value of 1 Hartree used in FHI-aims is :             27.211384500 eV

  Before relying on these values, please be sure to understand exactly which
  total energy value is referred to by a given number. Different objects may
  all carry the same name 'total energy'. Definitions:

  Total energy of the DFT / Hartree-Fock s.c.f. calculation:
  | Note that this energy does not include ANY quantities calculated after the
  | s.c.f. cycle, in particular not ANY RPA, MP2, etc. many-body perturbation terms.

  Final zero-broadening corrected energy:
  | For metallic systems only, a broadening of the occupation numbers at the Fermi
  | level can be extrapolated back to zero broadening by an electron-gas inspired
  | formula. For all systems that are not real metals, this value can be
  | meaningless and should be avoided.

------------------------------------------------------------------------------
  Methods described in the following list of references were used in this FHI-aims run.
  If you publish the results, please make sure to cite these reference if they apply.
  FHI-aims is an academic code, and for our developers (often, Ph.D. students
  and postdocs), scientific credit in the community is essential.
  Thank you for helping us!

  For any use of FHI-aims, please cite:

    Volker Blum, Ralf Gehrke, Felix Hanke, Paula Havu, Ville Havu,
    Xinguo Ren, Karsten Reuter, and Matthias Scheffler
    'Ab initio molecular simulations with numeric atom-centered orbitals'
    Computer Physics Communications 180, 2175-2196 (2009)
    http://dx.doi.org/10.1016/j.cpc.2009.06.022


  The scalable eigensolver library ELPA was used in your run.
  ELPA is essential especially for large systems on hundreds or thousands of CPUs.
  For ELPA, please cite:

    Andreas Marek, Volker Blum, Rainer Johanni, Ville Havu, Bruno Lang,
    Thomas Auckenthaler, Alexander Heinecke, Hans-Joachim Bungartz, and Hermann Lederer,
    'The ELPA Library - Scalable Parallel Eigenvalue Solutions
    for Electronic Structure Theory and Computational Science'
    The Journal of Physics: Condensed Matter 26, 213201 (2014).
    http://dx.doi.org/10.1088/0953-8984/26/21/213201


  The ELSI infrastructure was used in your run to solve the Kohn-Sham electronic structure.
  Please check out http://elsi-interchange.org to learn more.
  If scalability is important for your project, please acknowledge ELSI by citing:

    V. W-z. Yu, F. Corsetti, A. Garcia, W. P. Huhn, M. Jacquelin, W. Jia,
    B. Lange, L. Lin, J. Lu, W. Mi, A. Seifitokaldani, A. Vazquez-Mayagoitia,
    C. Yang, H. Yang, and V. Blum
    'ELSI: A unified software interface for Kohn-Sham electronic structure solvers'
    Computer Physics Communications 222, 267-285 (2018).
    http://dx.doi.org/10.1016/j.cpc.2017.09.007


  For the real-space grid partitioning and parallelization used in this calculation, please cite:

    Ville Havu, Volker Blum, Paula Havu, and Matthias Scheffler,
    'Efficient O(N) integration for all-electron electronic structure calculation'
    'using numerically tabulated basis functions'
    Journal of Computational Physics 228, 8367-8379 (2009).
    http://dx.doi.org/10.1016/j.jcp.2009.08.008

  Of course, there are many other important community references, e.g., those cited in the
  above references. Our list is limited to references that describe implementations in the
  FHI-aims code. The reason is purely practical (length of this list) - please credit others as well.

------------------------------------------------------------
          Leaving FHI-aims.
          Date     :  20190711, Time     :  214046.180

          Computational steps:
          | Number of self-consistency cycles          :           36
          | Number of SCF (re)initializations          :            5
          | Number of relaxation steps                 :            4

          Detailed time accounting                     :  max(cpu_time)    wall_clock(cpu1)
          | Total time                                 :        6.286 s           6.494 s
          | Preparation time                           :        0.499 s           0.737 s
          | Boundary condition initalization           :        0.001 s           0.015 s
          | Grid partitioning                          :        0.199 s           0.204 s
          | Preloading free-atom quantities on grid    :        0.094 s           0.096 s
          | Free-atom superposition energy             :        0.019 s           0.019 s
          | Total time for integrations                :        1.301 s           1.304 s
          | Total time for solution of K.-S. equations :        0.457 s           0.474 s
          | Total time for EV reorthonormalization     :        0.012 s           0.013 s
          | Total time for density & force components  :        1.188 s           1.183 s
          | Total time for mixing                      :        0.017 s           0.062 s
          | Total time for Hartree multipole update    :        0.065 s           0.065 s
          | Total time for Hartree multipole sum       :        1.692 s           1.696 s
          | Total time for total energy evaluation     :        0.053 s           0.123 s
          | Total time for vdW correction              :        0.055 s           0.058 s

          Partial memory accounting:
          | Residual value for overall tracked memory usage across tasks:     0.000000 MB (should be 0.000000 MB)
          | Peak values for overall tracked memory usage:
          |   Minimum:        2.079 MB (on task  2 after allocating hessian_basis_wave)
          |   Maximum:        2.098 MB (on task  0 after allocating hessian_basis_wave)
          |   Average:        2.087 MB
          | Largest tracked array allocation:
          |   Minimum:        1.058 MB (hessian_basis_wave on task  2)
          |   Maximum:        1.066 MB (hessian_basis_wave on task  0)
          |   Average:        1.063 MB
          Note:  These values currently only include a subset of arrays which are explicitly tracked.
          The "true" memory usage will be greater.

          Have a nice day.
------------------------------------------------------------
