------------------------------------------------------------
          Invoking FHI-aims ...
          Version 190522
          Compiled on 2019/06/18 at 22:17:48 on host coe.psc.edu.

          When using FHI-aims, please cite the following reference:

          Volker Blum, Ralf Gehrke, Felix Hanke, Paula Havu,
          Ville Havu, Xinguo Ren, Karsten Reuter, and Matthias Scheffler,
          'Ab Initio Molecular Simulations with Numeric Atom-Centered Orbitals',
          Computer Physics Communications 180, 2175-2196 (2009)

          For any questions about FHI-aims, please visit the aimsclub website
          with its forums and wiki. Contributions to both the forums and the
          wiki are warmly encouraged - they are for you, and everyone is welcome there.

------------------------------------------------------------



  Date     :  20191214, Time     :  004331.051
  Time zero on CPU 1             :   0.113613668100000E+04  s.
  Internal wall clock time zero  :           345516211.051  s.

  FHI-aims created a unique identifier for this run for later identification
  aims_uuid : F2F1B387-9165-4920-AA4C-2E3C4C1937F7

  Using       56 parallel tasks.
  Task        0 on host d015 reporting.
  Task        1 on host d015 reporting.
  Task        2 on host d015 reporting.
  Task        3 on host d015 reporting.
  Task        4 on host d015 reporting.
  Task        5 on host d015 reporting.
  Task        6 on host d015 reporting.
  Task        7 on host d015 reporting.
  Task        8 on host d015 reporting.
  Task        9 on host d015 reporting.
  Task       10 on host d015 reporting.
  Task       11 on host d015 reporting.
  Task       12 on host d015 reporting.
  Task       13 on host d015 reporting.
  Task       14 on host d015 reporting.
  Task       15 on host d015 reporting.
  Task       16 on host d015 reporting.
  Task       17 on host d015 reporting.
  Task       18 on host d015 reporting.
  Task       19 on host d015 reporting.
  Task       20 on host d015 reporting.
  Task       21 on host d015 reporting.
  Task       22 on host d015 reporting.
  Task       23 on host d015 reporting.
  Task       24 on host d015 reporting.
  Task       25 on host d015 reporting.
  Task       26 on host d015 reporting.
  Task       27 on host d015 reporting.
  Task       28 on host d015 reporting.
  Task       29 on host d015 reporting.
  Task       30 on host d015 reporting.
  Task       31 on host d015 reporting.
  Task       32 on host d015 reporting.
  Task       33 on host d015 reporting.
  Task       34 on host d015 reporting.
  Task       35 on host d015 reporting.
  Task       36 on host d015 reporting.
  Task       37 on host d015 reporting.
  Task       38 on host d015 reporting.
  Task       39 on host d015 reporting.
  Task       40 on host d015 reporting.
  Task       41 on host d015 reporting.
  Task       42 on host d015 reporting.
  Task       43 on host d015 reporting.
  Task       44 on host d015 reporting.
  Task       45 on host d015 reporting.
  Task       46 on host d015 reporting.
  Task       47 on host d015 reporting.
  Task       48 on host d015 reporting.
  Task       49 on host d015 reporting.
  Task       50 on host d015 reporting.
  Task       51 on host d015 reporting.
  Task       52 on host d015 reporting.
  Task       53 on host d015 reporting.
  Task       54 on host d015 reporting.
  Task       55 on host d015 reporting.

  Performing system and environment tests:
  | Environment variable OMP_NUM_THREADS correctly set to 1.
  | Maximum stacksize for task 0: unlimited
  | Maximum stacksize for task 1: unlimited
  | Maximum stacksize for task 2: unlimited
  | Maximum stacksize for task 3: unlimited
  | Maximum stacksize for task 4: unlimited
  | Maximum stacksize for task 5: unlimited
  | Maximum stacksize for task 6: unlimited
  | Maximum stacksize for task 7: unlimited
  | Maximum stacksize for task 8: unlimited
  | Maximum stacksize for task 9: unlimited
  | Maximum stacksize for task 10: unlimited
  | Maximum stacksize for task 11: unlimited
  | Maximum stacksize for task 12: unlimited
  | Maximum stacksize for task 13: unlimited
  | Maximum stacksize for task 14: unlimited
  | Maximum stacksize for task 15: unlimited
  | Maximum stacksize for task 16: unlimited
  | Maximum stacksize for task 17: unlimited
  | Maximum stacksize for task 18: unlimited
  | Maximum stacksize for task 19: unlimited
  | Maximum stacksize for task 20: unlimited
  | Maximum stacksize for task 21: unlimited
  | Maximum stacksize for task 22: unlimited
  | Maximum stacksize for task 23: unlimited
  | Maximum stacksize for task 24: unlimited
  | Maximum stacksize for task 25: unlimited
  | Maximum stacksize for task 26: unlimited
  | Maximum stacksize for task 27: unlimited
  | Maximum stacksize for task 28: unlimited
  | Maximum stacksize for task 29: unlimited
  | Maximum stacksize for task 30: unlimited
  | Maximum stacksize for task 31: unlimited
  | Maximum stacksize for task 32: unlimited
  | Maximum stacksize for task 33: unlimited
  | Maximum stacksize for task 34: unlimited
  | Maximum stacksize for task 35: unlimited
  | Maximum stacksize for task 36: unlimited
  | Maximum stacksize for task 37: unlimited
  | Maximum stacksize for task 38: unlimited
  | Maximum stacksize for task 39: unlimited
  | Maximum stacksize for task 40: unlimited
  | Maximum stacksize for task 41: unlimited
  | Maximum stacksize for task 42: unlimited
  | Maximum stacksize for task 43: unlimited
  | Maximum stacksize for task 44: unlimited
  | Maximum stacksize for task 45: unlimited
  | Maximum stacksize for task 46: unlimited
  | Maximum stacksize for task 47: unlimited
  | Maximum stacksize for task 48: unlimited
  | Maximum stacksize for task 49: unlimited
  | Maximum stacksize for task 50: unlimited
  | Maximum stacksize for task 51: unlimited
  | Maximum stacksize for task 52: unlimited
  | Maximum stacksize for task 53: unlimited
  | Maximum stacksize for task 54: unlimited
  | Maximum stacksize for task 55: unlimited
  | Current stacksize for task 0: unlimited
  | Current stacksize for task 1: unlimited
  | Current stacksize for task 2: unlimited
  | Current stacksize for task 3: unlimited
  | Current stacksize for task 4: unlimited
  | Current stacksize for task 5: unlimited
  | Current stacksize for task 6: unlimited
  | Current stacksize for task 7: unlimited
  | Current stacksize for task 8: unlimited
  | Current stacksize for task 9: unlimited
  | Current stacksize for task 10: unlimited
  | Current stacksize for task 11: unlimited
  | Current stacksize for task 12: unlimited
  | Current stacksize for task 13: unlimited
  | Current stacksize for task 14: unlimited
  | Current stacksize for task 15: unlimited
  | Current stacksize for task 16: unlimited
  | Current stacksize for task 17: unlimited
  | Current stacksize for task 18: unlimited
  | Current stacksize for task 19: unlimited
  | Current stacksize for task 20: unlimited
  | Current stacksize for task 21: unlimited
  | Current stacksize for task 22: unlimited
  | Current stacksize for task 23: unlimited
  | Current stacksize for task 24: unlimited
  | Current stacksize for task 25: unlimited
  | Current stacksize for task 26: unlimited
  | Current stacksize for task 27: unlimited
  | Current stacksize for task 28: unlimited
  | Current stacksize for task 29: unlimited
  | Current stacksize for task 30: unlimited
  | Current stacksize for task 31: unlimited
  | Current stacksize for task 32: unlimited
  | Current stacksize for task 33: unlimited
  | Current stacksize for task 34: unlimited
  | Current stacksize for task 35: unlimited
  | Current stacksize for task 36: unlimited
  | Current stacksize for task 37: unlimited
  | Current stacksize for task 38: unlimited
  | Current stacksize for task 39: unlimited
  | Current stacksize for task 40: unlimited
  | Current stacksize for task 41: unlimited
  | Current stacksize for task 42: unlimited
  | Current stacksize for task 43: unlimited
  | Current stacksize for task 44: unlimited
  | Current stacksize for task 45: unlimited
  | Current stacksize for task 46: unlimited
  | Current stacksize for task 47: unlimited
  | Current stacksize for task 48: unlimited
  | Current stacksize for task 49: unlimited
  | Current stacksize for task 50: unlimited
  | Current stacksize for task 51: unlimited
  | Current stacksize for task 52: unlimited
  | Current stacksize for task 53: unlimited
  | Current stacksize for task 54: unlimited
  | Current stacksize for task 55: unlimited
  | Checking for scalapack...
  | Testing pdtran()...
  | All pdtran() tests passed.

  Obtaining array dimensions for all initial allocations:
  
  -----------------------------------------------------------------------
  Parsing control.in (first pass over file, find array dimensions only).
  The contents of control.in will be repeated verbatim below
  unless switched off by setting 'verbatim_writeout .false.' .
  in the first line of control.in .
  -----------------------------------------------------------------------
  
    #########################################################################################
    #
    #   input file control.in tight for scaling studies
    #
    #########################################################################################
    #
    #  Physical model
    #
      xc                 pbe
      spin               none
      relativistic       none
      override_relativity .true.
      charge             0.
    #
    #  SCF convergence
    #
      occupation_type    gaussian 0.1
      mixer              pulay
        n_max_pulay        10
        charge_mix_param   0.3
      sc_accuracy_rho    1E-4
      sc_accuracy_eev    1E-2
      sc_accuracy_etot   1E-4
      sc_accuracy_forces 1E-2
      sc_iter_limit      1000
  harmonic_length_scale 0.02
  energy_tolerance 5E-3
  
   postprocess_anyway            .true.
  #    restart restart_file
    #KS_method scalapack_old
    #KS_method serial also works
   hessian_to_restart_geometry     .false.
  
    #
    #
    #  Eigenvalue solution
      #KS_method  lapack
    #  partition_type rho_r2 ## !! use only if on BG you run into an unexpected
    #memory shortage per processor!!
  
    #
    #  accuracy / efficiency for normal scf
    #
    #  density_update_method density_matrix
    #  collect_eigenvectors .false.
    #  empty_states     3 ## This is the setting for light elements. Careful!!
    #
    #  use_local_index .true.
    ##  load_balancing .true.
    #  distributed_spline_storage .false.  ## Helps save memory but may hurt your
    #  performance. Test effect for VERY MANY CPUs.
    #
    #  For periodic boundary conditions
    #
        k_grid 3 3 3
    #    output k_eigenvalue 1
  
    #
    #  Relaxation
    #
    #  restart_relaxations .true.
     relax_geometry   bfgs 1.e-2
      vdw_correction_hirshfeld
  relax_unit_cell full
    #  output Hirshfeld-I
    #
    ################################################################################
    ################################################################################
    #
    #  FHI-aims code project
    #  VB, Fritz-Haber Institut, 2009
    #
    #  Suggested "light" defaults for H atom (to be pasted into control.in file)
    #  Be sure to double-check any results obtained with these settings for post-processing,
    #  e.g., with the "tight" defaults and larger basis sets.
    #
    ################################################################################
      species        H
    #     global species definitions
        nucleus             1
        mass                1.00794
    #
        l_hartree           4
    #
        cut_pot             3.5  1.5  1.0
        basis_dep_cutoff    1e-4
    #
        radial_base         24 5.0
        radial_multiplier   1
        angular_grids       specified
          division   0.2421   50
          division   0.3822  110
          division   0.4799  194
          division   0.5341  302
    #      division   0.5626  434
    #      division   0.5922  590
    #      division   0.6542  770
    #      division   0.6868 1202
    #      outer_grid  770
          outer_grid  302
    ################################################################################
    #
    #  Definition of "minimal" basis
    #
    ################################################################################
    #     valence basis states
        valence      1  s   1.
    #     ion occupancy
        ion_occ      1  s   0.5
    ################################################################################
    #
    #  Suggested additional basis functions. For production calculations,
    #  uncomment them one after another (the most important basis functions are
    #  listed first).
    #
    #  Basis constructed for dimers: 0.5 A, 0.7 A, 1.0 A, 1.5 A, 2.5 A
    #
    ################################################################################
    #  "First tier" - improvements: -1014.90 meV to -62.69 meV
         hydro 2 s 2.1
         hydro 2 p 3.5
    #  "Second tier" - improvements: -12.89 meV to -1.83 meV
    #     hydro 1 s 0.85
    #     hydro 2 p 3.7
    #     hydro 2 s 1.2
    #     hydro 3 d 7
    #  "Third tier" - improvements: -0.25 meV to -0.12 meV
    #     hydro 4 f 11.2
    #     hydro 3 p 4.8
    #     hydro 4 d 9
    #     hydro 3 s 3.2
    ################################################################################
    #
    #  FHI-aims code project
    #  VB, Fritz-Haber Institut, 2009
    #
    #  Suggested "light" defaults for C atom (to be pasted into control.in file)
    #  Be sure to double-check any results obtained with these settings for post-processing,
    #  e.g., with the "tight" defaults and larger basis sets.
    #
    ################################################################################
      species        C
    #     global species definitions
        nucleus             6
        mass                12.0107
    #
        l_hartree           4
    #
        cut_pot             3.5  1.5  1.0
        basis_dep_cutoff    1e-4
    #
        radial_base         34 5.0
        radial_multiplier   1
        angular_grids specified
          division   0.3326   50
          division   0.5710  110
          division   0.7727  194
          division   0.8772  302
    #      division   0.9334  434
    #      division   0.9625  590
    #      division   0.9924  770
    #      division   1.0230  974
    #      division   1.4589 1202
    #     outer_grid  974
         outer_grid 302
    ################################################################################
    #
    #  Definition of "minimal" basis
    #
    ################################################################################
    #     valence basis states
        valence      2  s   2.
        valence      2  p   2.
    #     ion occupancy
        ion_occ      2  s   1.
        ion_occ      2  p   1.
    ################################################################################
    #
    #  Suggested additional basis functions. For production calculations,
    #  uncomment them one after another (the most important basis functions are
    #  listed first).
    #
    #  Constructed for dimers: 1.0 A, 1.25 A, 1.5 A, 2.0 A, 3.0 A
    #
    ################################################################################
    #  "First tier" - improvements: -1214.57 meV to -155.61 meV
         hydro 2 p 1.7
         hydro 3 d 6
         hydro 2 s 4.9
    #  "Second tier" - improvements: -67.75 meV to -5.23 meV
    #     hydro 4 f 9.8
    #     hydro 3 p 5.2
    #     hydro 3 s 4.3
    #     hydro 5 g 14.4
    #     hydro 3 d 6.2
    #  "Third tier" - improvements: -2.43 meV to -0.60 meV
    #     hydro 2 p 5.6
    #     hydro 2 s 1.4
    #     hydro 3 d 4.9
    #     hydro 4 f 11.2
    #  "Fourth tier" - improvements: -0.39 meV to -0.18 meV
    #     hydro 2 p 2.1
    #     hydro 5 g 16.4
    #     hydro 4 d 13.2
    #     hydro 3 s 13.6
    #     hydro 4 f 17.6
    #  Further basis functions - improvements: -0.08 meV and below
    #     hydro 3 s 2
    #     hydro 3 p 6
    #     hydro 4 d 20
    ################################################################################
    #
    #  FHI-aims code project
    #  VB, Fritz-Haber Institut, 2009
    #
    #  Suggested "light" defaults for N atom (to be pasted into control.in file)
    #  Be sure to double-check any results obtained with these settings for post-processing,
    #  e.g., with the "tight" defaults and larger basis sets.
    #
    ################################################################################
      species        N
    #     global species definitions
        nucleus             7
        mass                14.0067
    #
        l_hartree           4
    #
        cut_pot             3.5  1.5  1.0
        basis_dep_cutoff    1e-4
    #
        radial_base         35 5.0
        radial_multiplier   1
        angular_grids       specified
          division   0.2599   50
          division   0.4601  110
          division   0.5885  194
          division   0.6503  302
    #      division   0.6939  434
    #      division   0.7396  590
    #      division   0.7632  770
    #      division   0.8122  974
    #      division   1.1604 1202
    #      outer_grid  974
          outer_grid  302
    ################################################################################
    #
    #  Definition of "minimal" basis
    #
    ################################################################################
    #     valence basis states
        valence      2  s   2.
        valence      2  p   3.
    #     ion occupancy
        ion_occ      2  s   1.
        ion_occ      2  p   2.
    ################################################################################
    #
    #  Suggested additional basis functions. For production calculations,
    #  uncomment them one after another (the most important basis functions are
    #  listed first).
    #
    #  Constructed for dimers: 1.0 A, 1.1 A, 1.5 A, 2.0 A, 3.0 A
    #
    ################################################################################
    #  "First tier" - improvements: -1193.42 meV to -220.60 meV
         hydro 2 p 1.8
         hydro 3 d 6.8
         hydro 3 s 5.8
    #  "Second tier" - improvements: -80.21 meV to -6.86 meV
    #     hydro 4 f 10.8
    #     hydro 3 p 5.8
    #     hydro 1 s 0.8
    #     hydro 5 g 16
    #     hydro 3 d 4.9
    #  "Third tier" - improvements: -4.29 meV to -0.53 meV
    #     hydro 3 s 16
    #     ionic 2 p auto
    #     hydro 3 d 6.6
    #     hydro 4 f 11.6
    #  "Fourth tier" - improvements: -0.75 meV to -0.25 meV
    #     hydro 2 p 4.5
    #     hydro 2 s 2.4
    #     hydro 5 g 14.4
    #     hydro 4 d 14.4
    #     hydro 4 f 16.8
    # Further basis functions - -0.21 meV and below
    #     hydro 3 p 14.8
    #     hydro 3 s 4.4
    #     hydro 3 d 19.6
    #     hydro 5 g 12.8
    ################################################################################
    #
    #  FHI-aims code project
    #  VB, Fritz-Haber Institut, 2009
    #
    #  Suggested "light" defaults for O atom (to be pasted into control.in file)
    #  Be sure to double-check any results obtained with these settings for post-processing,
    #  e.g., with the "tight" defaults and larger basis sets.
    #
    ################################################################################
      species        O
    #     global species definitions
        nucleus             8
        mass                15.9994
    #
        l_hartree           4
    #
        cut_pot             3.5  1.5  1.0
        basis_dep_cutoff    1e-4
    #
        radial_base         36 5.0
        radial_multiplier   1
         angular_grids specified
          division   0.2659   50
          division   0.4451  110
          division   0.6052  194
          division   0.7543  302
    #      division   0.8014  434
    #      division   0.8507  590
    #      division   0.8762  770
    #      division   0.9023  974
    #      division   1.2339 1202
    #      outer_grid 974
          outer_grid 302
    ################################################################################
    #
    #  Definition of "minimal" basis
    #
    ################################################################################
    #     valence basis states
        valence      2  s   2.
        valence      2  p   4.
    #     ion occupancy
        ion_occ      2  s   1.
        ion_occ      2  p   3.
    ################################################################################
    #
    #  Suggested additional basis functions. For production calculations,
    #  uncomment them one after another (the most important basis functions are
    #  listed first).
    #
    #  Constructed for dimers: 1.0 A, 1.208 A, 1.5 A, 2.0 A, 3.0 A
    #
    ################################################################################
    #  "First tier" - improvements: -699.05 meV to -159.38 meV
         hydro 2 p 1.8
         hydro 3 d 7.6
         hydro 3 s 6.4
    #  "Second tier" - improvements: -49.91 meV to -5.39 meV
    #     hydro 4 f 11.6
    #     hydro 3 p 6.2
    #     hydro 3 d 5.6
    #     hydro 5 g 17.6
    #     hydro 1 s 0.75
    #  "Third tier" - improvements: -2.83 meV to -0.50 meV
    #     ionic 2 p auto
    #     hydro 4 f 10.8
    #     hydro 4 d 4.7
    #     hydro 2 s 6.8
    #  "Fourth tier" - improvements: -0.40 meV to -0.12 meV
    #     hydro 3 p 5
    #     hydro 3 s 3.3
    #     hydro 5 g 15.6
    #     hydro 4 f 17.6
    #     hydro 4 d 14
    # Further basis functions - -0.08 meV and below
    #     hydro 3 s 2.1
    #     hydro 4 d 11.6
    #     hydro 3 p 16
    #     hydro 2 s 17.2
    ################################################################################
    #
    #  FHI-aims code project
    #  VB, Fritz-Haber Institut, 2009
    #
    #  Suggested "light" defaults for S atom (to be pasted into control.in file)
    #  Be sure to double-check any results obtained with these settings for post-processing,
    #  e.g., with the "tight" defaults and larger basis sets.
    #
    ################################################################################
      species        S
    #     global species definitions
        nucleus             16
        mass                32.065
    #
        l_hartree           4
    #
        cut_pot             3.5          1.5  1.0
        basis_dep_cutoff    1e-4
    #
        radial_base         44 5.0
        radial_multiplier   1
        angular_grids       specified
          division   0.4665  110
          division   0.5810  194
          division   0.7139  302
    #      division   0.8274  434
    #      division   0.9105  590
    #      division   1.0975  770
    #      division   1.2028  974
    #      outer_grid  974
          outer_grid  302
    ################################################################################
    #
    #  Definition of "minimal" basis
    #
    ################################################################################
    #     valence basis states
        valence      3  s   2.
        valence      3  p   4.
    #     ion occupancy
        ion_occ      3  s   1.
        ion_occ      3  p   3.
    ################################################################################
    #
    #  Suggested additional basis functions. For production calculations,
    #  uncomment them one after another (the most important basis functions are
    #  listed first).
    #
    #  Constructed for dimers: 1.6 A, 1.9 A, 2.5 A, 3.25 A, 4.0 A
    #
    ################################################################################
    #  "First tier" - improvements: -652.81 meV to -45.53 meV
         ionic 3 d auto
         hydro 2 p 1.8
    #     hydro 4 f 7
         ionic 3 s auto
    #  "Second tier" - improvements: -30.20 meV to -1.74 meV
    #     hydro 4 d 6.2
    #     hydro 5 g 10.8
    #     hydro 4 p 4.9
    #     hydro 5 f 10
    #     hydro 1 s 0.8
    #  "Third tier" - improvements: -1.04 meV to -0.20 meV
    #     hydro 3 d 3.9
    #     hydro 3 d 2.7
    #     hydro 5 g 12
    #     hydro 4 p 10.4
    #     hydro 5 f 12.4
    #     hydro 2 s 1.9
    #  "Fourth tier" - improvements: -0.35 meV to -0.06 meV
    #     hydro 4 d 10.4
    #     hydro 4 p 7.2
    #     hydro 4 d 10
    #     hydro 5 g 19.2
    #     hydro 4 s 12
  
  
  -----------------------------------------------------------------------
  Completed first pass over input file control.in .
  -----------------------------------------------------------------------
  
  
  -----------------------------------------------------------------------
  Parsing geometry.in (first pass over file, find array dimensions only).
  The contents of geometry.in will be repeated verbatim below
  unless switched off by setting 'verbatim_writeout .false.' .
  in the first line of geometry.in .
  -----------------------------------------------------------------------
  
  lattice_vector 5.438209 0.0 0.0
  lattice_vector 4.312571047231621e-16 7.042963 0.0
  lattice_vector 4.3125712661138177e-16 -3.521482 6.099384999999998
  atom 1.35955 1.35883 3.73500 C
  atom 1.35955 0.39255 2.72384 C
  atom 1.35955 -0.96629 3.05510 C
  atom 1.35955 -1.35883 4.39751 C
  atom 1.35955 -0.39255 5.40867 C
  atom 1.35955 0.96629 5.07741 C
  atom 1.35955 2.41919 3.47651 H
  atom 1.35955 0.69886 1.67630 H
  atom 1.35955 -1.72033 2.26605 H
  atom 1.35955 -2.41919 4.65600 H
  atom 1.35955 -0.69886 6.45621 H
  atom 1.35955 1.72033 5.86647 H
  atom 4.07866 2.55519 3.04429 C
  atom 4.07866 2.16265 1.70188 C
  atom 4.07866 3.12894 0.69072 C
  atom 4.07866 4.48777 1.02197 C
  atom 4.07866 4.88032 2.36438 C
  atom 4.07866 3.91403 3.37554 C
  atom 4.07866 1.80115 3.83334 H
  atom 4.07866 1.10229 1.44339 H
  atom 4.07866 2.82262 -0.35683 H
  atom 4.07866 5.24181 0.23292 H
  atom 4.07866 5.94067 2.62287 H
  atom 4.07866 4.22035 4.42308 H
  
  -----------------------------------------------------------------------
  Completed first pass over input file geometry.in .
  -----------------------------------------------------------------------
  

  Basic array size parameters:
  | Number of species                 :        5
  | Number of atoms                   :       24
  | Number of lattice vectors         :        3
  | Max. basis fn. angular momentum   :        2
  | Max. atomic/ionic basis occupied n:        3
  | Max. number of basis fn. types    :        3
  | Max. radial fns per species/type  :        5
  | Max. logarithmic grid size        :     1357
  | Max. radial integration grid size :       44
  | Max. angular integration grid size:      302
  | Max. angular grid division number :        8
  | Radial grid for Hartree potential :     1357
  | Number of spin channels           :        1

------------------------------------------------------------
          Reading file control.in.
------------------------------------------------------------
  XC: Using PBE gradient-corrected functionals.
  Spin treatment: No spin polarisation.
  Non-relativistic treatment of kinetic energy.
  override_relativity: Explicitly overriding any built-in relativity checks.
  If you use this flag, you should really know what you are doing.
  Charge =   0.000000E+00: Neutral system requested explicitly.
  Occupation type: Gaussian broadening, width =   0.100000E+00 eV.
  Using pulay charge density mixing.
  Pulay mixing - number of memorized iterations:   10
  Charge density mixing - mixing parameter:     0.3000
  Convergence accuracy of self-consistent charge density:  0.1000E-03
  Convergence accuracy of sum of eigenvalues:  0.1000E-01
  Convergence accuracy of total energy:  0.1000E-03
  Convergence accuracy of forces:  0.1000E-01
  Maximum number of s.-c. iterations  :  1000
  Assuming qualitatively harmonic for steps shorter than   0.200000E-01 A.
  Max energy increase before discarding BFGS move:   0.500000E-02 eV
  Postprocessing will be performed even if SCF does not converge.
  Hessian information is explicitly not written to geometry.in.next_step for relaxation restart.
  Found k-point grid:         3         3         3
  Geometry relaxation: Modified BFGS - TRM (trust radius method) for lattice optimization.
  Convergence accuracy for geometry relaxation: Maximum force <   0.100000E-01 eV/A.
 
  Reading configuration options for species H                   .
  | Found nuclear charge :   1.0000
  | Found atomic mass :    1.00794000000000      amu
  | Found l_max for Hartree potential  :   4
  | Found cutoff potl. onset [A], width [A], scale factor :    3.50000    1.50000    1.00000
  | Threshold for basis-dependent cutoff potential is   0.100000E-03
  | Found data for basic radial integration grid :    24 points, outermost radius =    5.000 A
  | Found multiplier for basic radial grid :   1
  | Found angular grid specification: user-specified.
  | Specified grid contains     5 separate shells.
  | Check grid settings after all constraints further below.
  | Found free-atom valence shell :  1 s   1.000
  | Found free-ion valence shell :  1 s   0.500
  | Found hydrogenic basis function :  2 s   2.100
  | Found hydrogenic basis function :  2 p   3.500
  Species H                   : Missing cutoff potential type.
  Defaulting to exp(1/x)/(1-x)^2 type cutoff potential.
  Species H : No 'logarithmic' tag. Using default grid for free atom:
  | Default logarithmic grid data [bohr] : 0.1000E-03 0.1000E+03 0.1012E+01
  Species H : On-site basis accuracy parameter (for Gram-Schmidt orthonormalisation) not specified.
  Using default value basis_acc =  0.1000000E-03.
  Species H                   : Using default innermost maximum threshold i_radial=  2 for radial functions.
  Species H                   : Default cutoff onset for free atom density etc. : 0.35000000E+01 AA.
  Species H                   : Basic radial grid will be enhanced according to radial_multiplier =   1, to contain    24 grid points.
 
  Reading configuration options for species C                   .
  | Found nuclear charge :   6.0000
  | Found atomic mass :    12.0107000000000      amu
  | Found l_max for Hartree potential  :   4
  | Found cutoff potl. onset [A], width [A], scale factor :    3.50000    1.50000    1.00000
  | Threshold for basis-dependent cutoff potential is   0.100000E-03
  | Found data for basic radial integration grid :    34 points, outermost radius =    5.000 A
  | Found multiplier for basic radial grid :   1
  | Found angular grid specification: user-specified.
  | Specified grid contains     5 separate shells.
  | Check grid settings after all constraints further below.
  | Found free-atom valence shell :  2 s   2.000
  | Found free-atom valence shell :  2 p   2.000
  | Found free-ion valence shell :  2 s   1.000
  | Found free-ion valence shell :  2 p   1.000
  | Found hydrogenic basis function :  2 p   1.700
  | Found hydrogenic basis function :  3 d   6.000
  | Found hydrogenic basis function :  2 s   4.900
  Species C                   : Missing cutoff potential type.
  Defaulting to exp(1/x)/(1-x)^2 type cutoff potential.
  Species C : No 'logarithmic' tag. Using default grid for free atom:
  | Default logarithmic grid data [bohr] : 0.1000E-03 0.1000E+03 0.1012E+01
  Species C : On-site basis accuracy parameter (for Gram-Schmidt orthonormalisation) not specified.
  Using default value basis_acc =  0.1000000E-03.
  Species C                   : Using default innermost maximum threshold i_radial=  2 for radial functions.
  Species C                   : Default cutoff onset for free atom density etc. : 0.35000000E+01 AA.
  Species C                   : Basic radial grid will be enhanced according to radial_multiplier =   1, to contain    34 grid points.
 
  Reading configuration options for species N                   .
  | Found nuclear charge :   7.0000
  | Found atomic mass :    14.0067000000000      amu
  | Found l_max for Hartree potential  :   4
  | Found cutoff potl. onset [A], width [A], scale factor :    3.50000    1.50000    1.00000
  | Threshold for basis-dependent cutoff potential is   0.100000E-03
  | Found data for basic radial integration grid :    35 points, outermost radius =    5.000 A
  | Found multiplier for basic radial grid :   1
  | Found angular grid specification: user-specified.
  | Specified grid contains     5 separate shells.
  | Check grid settings after all constraints further below.
  | Found free-atom valence shell :  2 s   2.000
  | Found free-atom valence shell :  2 p   3.000
  | Found free-ion valence shell :  2 s   1.000
  | Found free-ion valence shell :  2 p   2.000
  | Found hydrogenic basis function :  2 p   1.800
  | Found hydrogenic basis function :  3 d   6.800
  | Found hydrogenic basis function :  3 s   5.800
  Species N                   : Missing cutoff potential type.
  Defaulting to exp(1/x)/(1-x)^2 type cutoff potential.
  Species N : No 'logarithmic' tag. Using default grid for free atom:
  | Default logarithmic grid data [bohr] : 0.1000E-03 0.1000E+03 0.1012E+01
  Species N : On-site basis accuracy parameter (for Gram-Schmidt orthonormalisation) not specified.
  Using default value basis_acc =  0.1000000E-03.
  Species N                   : Using default innermost maximum threshold i_radial=  2 for radial functions.
  Species N                   : Default cutoff onset for free atom density etc. : 0.35000000E+01 AA.
  Species N                   : Basic radial grid will be enhanced according to radial_multiplier =   1, to contain    35 grid points.
 
  Reading configuration options for species O                   .
  | Found nuclear charge :   8.0000
  | Found atomic mass :    15.9994000000000      amu
  | Found l_max for Hartree potential  :   4
  | Found cutoff potl. onset [A], width [A], scale factor :    3.50000    1.50000    1.00000
  | Threshold for basis-dependent cutoff potential is   0.100000E-03
  | Found data for basic radial integration grid :    36 points, outermost radius =    5.000 A
  | Found multiplier for basic radial grid :   1
  | Found angular grid specification: user-specified.
  | Specified grid contains     5 separate shells.
  | Check grid settings after all constraints further below.
  | Found free-atom valence shell :  2 s   2.000
  | Found free-atom valence shell :  2 p   4.000
  | Found free-ion valence shell :  2 s   1.000
  | Found free-ion valence shell :  2 p   3.000
  | Found hydrogenic basis function :  2 p   1.800
  | Found hydrogenic basis function :  3 d   7.600
  | Found hydrogenic basis function :  3 s   6.400
  Species O                   : Missing cutoff potential type.
  Defaulting to exp(1/x)/(1-x)^2 type cutoff potential.
  Species O : No 'logarithmic' tag. Using default grid for free atom:
  | Default logarithmic grid data [bohr] : 0.1000E-03 0.1000E+03 0.1012E+01
  Species O : On-site basis accuracy parameter (for Gram-Schmidt orthonormalisation) not specified.
  Using default value basis_acc =  0.1000000E-03.
  Species O                   : Using default innermost maximum threshold i_radial=  2 for radial functions.
  Species O                   : Default cutoff onset for free atom density etc. : 0.35000000E+01 AA.
  Species O                   : Basic radial grid will be enhanced according to radial_multiplier =   1, to contain    36 grid points.
 
  Reading configuration options for species S                   .
  | Found nuclear charge :  16.0000
  | Found atomic mass :    32.0650000000000      amu
  | Found l_max for Hartree potential  :   4
  | Found cutoff potl. onset [A], width [A], scale factor :    3.50000    1.50000    1.00000
  | Threshold for basis-dependent cutoff potential is   0.100000E-03
  | Found data for basic radial integration grid :    44 points, outermost radius =    5.000 A
  | Found multiplier for basic radial grid :   1
  | Found angular grid specification: user-specified.
  | Specified grid contains     4 separate shells.
  | Check grid settings after all constraints further below.
  | Found free-atom valence shell :  3 s   2.000
  | Found free-atom valence shell :  3 p   4.000
  | Found free-ion valence shell :  3 s   1.000
  | Found free-ion valence shell :  3 p   3.000
  | Found ionic basis function :  3 d , default cutoff radius.
  | Found hydrogenic basis function :  2 p   1.800
  | Found ionic basis function :  3 s , default cutoff radius.
  Species S                   : Missing cutoff potential type.
  Defaulting to exp(1/x)/(1-x)^2 type cutoff potential.
  Species S : No 'logarithmic' tag. Using default grid for free atom:
  | Default logarithmic grid data [bohr] : 0.1000E-03 0.1000E+03 0.1012E+01
  | Will include ionic basis functions of  2.0-fold positive S                    ion.
  Species S : On-site basis accuracy parameter (for Gram-Schmidt orthonormalisation) not specified.
  Using default value basis_acc =  0.1000000E-03.
  Species S                   : Using default innermost maximum threshold i_radial=  2 for radial functions.
  Species S                   : Default cutoff onset for free atom density etc. : 0.35000000E+01 AA.
  Species S                   : Basic radial grid will be enhanced according to radial_multiplier =   1, to contain    44 grid points.
 
  Finished reading input file 'control.in'. Consistency checks are next.
 
  MPI_IN_PLACE appears to work with this MPI implementation.
  | Keeping use_mpi_in_place .true. (see manual).
  Target number of points in a grid batch is not set. Defaulting to  100
  Method for grid partitioning is not set. Defaulting to parallel hash+maxmin partitioning.
  Batch size limit is not set. Defaulting to    200
  By default, will store active basis functions for each batch.
  If in need of memory, prune_basis_once .false. can be used to disable this option.
  communication_type for Hartree potential was not specified.
  Defaulting to calc_hartree .
  Pulay mixer: Number of initial linear mixing iterations not set.
  Defaulting to    0 iterations.
  Work space size for distributed Hartree potential not set.
  Defaulting to   0.200000E+03 MB.
  Algorithm-dependent basis array size parameters:
  | n_max_pulay                         :       10
  Presetting      1001 iterations before the initial mixing cycle
  is restarted anyway using the sc_init_iter criterion / keyword.
  Presetting a factor      1.000 between actual scf density residual
  and density convergence criterion sc_accuracy_rho below which sc_init_iter
  takes no effect.
  No maximum number of relaxation steps, defaulting to     1000
  Default initial Hessian is Lindh matrix (thres = 15.00) plus  0.200000E+01 eV/A^2 times unity.
  Maximum energy tolerance by which TRM/BFGS trajectory may increase over multiple steps:   0.300000E-02
  No trust radius initializer. Defaulting to   0.200000E+00 A.
  Unit cell relaxation: Unit cell will be relaxed fully.
  Unit cell relaxation: Analytical stress will be used.
  Analytical stress will be computed.
  Analytical stress calculation: Only the upper triangle is calculated.
                                 Final output is symmetrized.
  Analytical stress calculation: scf convergence accuracy of stress not set.
                                 Analytical stress self-consistency will not be checked explicitly.
                                 Be sure to set other criteria like sc_accuracy_rho tight enough.
  Handling of forces: Unphysical translation and rotation will be removed from forces.
  No accuracy limit for integral partition fn. given. Defaulting to  0.1000E-14.
  No threshold value for u(r) in integrations given. Defaulting to  0.1000E-05.
  No accuracy for occupation numbers given. Defaulting to  0.1000E-12.
  No threshold value for occupation numbers given. Defaulting to  0.0000E+00.
  No accuracy for fermi level given. Defaulting to  0.1000E-19.
  Maximum # of iterations to find E_F not set. Defaulting to  200.
  Preferred method for the eigenvalue solver ('KS_method') not specified in 'control.in'.
  Calling BLACS routine to test compilation state
  Since ScaLAPACK support is enabled, defaulting to ELPA (via ELSI).
  Will not use alltoall communication since running on < 1024 CPUs.
  Threshold for basis singularities not set.
  Default threshold for basis singularities:  0.1000E-04
  partition_type (choice of integration weights) for integrals was not specified.
  | Using a version of the partition function of Stratmann and coworkers ('stratmann_sparse').
  | At each grid point, the set of atoms used to build the partition table is smoothly restricted to
  | only those atoms whose free-atom density would be non-zero at that grid point.
  Partitioning for Hartree potential was not defined. Using partition_type for integrals.
  | Adjusted default value of keyword multip_moments_threshold to:       0.10000000E-11
  | This value may affect high angular momentum components of the Hartree potential in periodic systems.
  Angular momentum expansion for Kerker preconditioner not set explicitly.
  | Using default value of   0
  No explicit requirement for turning off preconditioner.
  | By default, it will be turned off when the charge convergence reaches
  | sc_accuracy_rho  =   0.100000E-03
  | sc_accuracy_eev  =   0.100000E-01
  | sc_accuracy_etot =   0.100000E-03
  No special mixing parameter while Kerker preconditioner is on.
  Using default: charge_mix_param =     0.3000.
  No q(lm)/r^(l+1) cutoff set for long-range Hartree potential.
  | Using default value of  0.100000E-09 .
  | Verify using the multipole_threshold keyword.
  Defaulting to new monopole extrapolation.
  Density update method: automatic selection selected.
  Using density matrix based charge density update.
  Using density matrix based charge density update.
  Using packed matrix style: index .
  Geometry relaxation: A file "geometry.in.next_step" is written out by default after each step.
  | This file contains the geometry of the current relaxation step as well as
  | the current Hessian matrix needed to restart the relaxation algorithm.
  | If you do not want part or all of this information, use the keywords
  | "write_restart_geometry" or "hessian_to_restart_geometry" to switch the output off.
  Defaulting to use time-reversal symmetry for k-point grid.
  Using the following vdw_convergence_threshold for supercell sums
  over the Tkatchenko-Scheffler correction:  0.100000E-05 eV.
------------------------------------------------------------


------------------------------------------------------------
          Reading geometry description geometry.in.
------------------------------------------------------------
  Input structure read successfully.
  The structure contains       24 atoms,  and a total of         84.000 electrons.

  Input geometry:
  | Unit cell:
  |        5.43820900        0.00000000        0.00000000
  |        0.00000000        7.04296300        0.00000000
  |        0.00000000       -3.52148200        6.09938500
  | Atomic structure:
  |       Atom                x [A]            y [A]            z [A]
  |    1: Species C             1.35955000        1.35883000        3.73500000
  |    2: Species C             1.35955000        0.39255000        2.72384000
  |    3: Species C             1.35955000       -0.96629000        3.05510000
  |    4: Species C             1.35955000       -1.35883000        4.39751000
  |    5: Species C             1.35955000       -0.39255000        5.40867000
  |    6: Species C             1.35955000        0.96629000        5.07741000
  |    7: Species H             1.35955000        2.41919000        3.47651000
  |    8: Species H             1.35955000        0.69886000        1.67630000
  |    9: Species H             1.35955000       -1.72033000        2.26605000
  |   10: Species H             1.35955000       -2.41919000        4.65600000
  |   11: Species H             1.35955000       -0.69886000        6.45621000
  |   12: Species H             1.35955000        1.72033000        5.86647000
  |   13: Species C             4.07866000        2.55519000        3.04429000
  |   14: Species C             4.07866000        2.16265000        1.70188000
  |   15: Species C             4.07866000        3.12894000        0.69072000
  |   16: Species C             4.07866000        4.48777000        1.02197000
  |   17: Species C             4.07866000        4.88032000        2.36438000
  |   18: Species C             4.07866000        3.91403000        3.37554000
  |   19: Species H             4.07866000        1.80115000        3.83334000
  |   20: Species H             4.07866000        1.10229000        1.44339000
  |   21: Species H             4.07866000        2.82262000       -0.35683000
  |   22: Species H             4.07866000        5.24181000        0.23292000
  |   23: Species H             4.07866000        5.94067000        2.62287000
  |   24: Species H             4.07866000        4.22035000        4.42308000

  Lattice parameters for 3D lattice (in Angstroms) :     5.438209    7.042963    7.042963
  Angle(s) between unit vectors (in degrees)       :   120.000003   90.000000   90.000000

  |

  | The smallest distance between any two atoms is         1.09140240 AA.
  |
  | The first atom of this pair is atom number                     17 .
  | The second atom of this pair is atom number                    23 .
  | Wigner-Seitz cell of the first atom image           0     0     0 .
  | (The Wigner-Seitz cell of the second atom is 0 0 0  by definition.)

  Symmetry information by spglib:
  | Precision set to  0.1E-04
  | Number of Operations  : 1
  | Space group           : 1
  | International         : P1      en
  | Schoenflies           : C1^1

  Quantities derived from the lattice vectors:
  | Reciprocal lattice vector 1:  1.155378 -0.000000 -0.000000
  | Reciprocal lattice vector 2: -0.000000  0.892122  0.515067
  | Reciprocal lattice vector 3: -0.000000  0.000000  1.030134
  | Unit cell volume                               :   0.233613E+03  A^3

  Range separation radius for Ewald summation (hartree_convergence_parameter):      2.94334764 bohr.

  Fractional coordinates:
                         L1                L2                L3
       atom_frac         0.24999959        0.49911288        0.61235682  C
       atom_frac         0.24999959        0.27902460        0.44657617  C
       atom_frac         0.24999959        0.11324396        0.50088656  C
       atom_frac         0.24999959        0.16755361        0.72097597  C
       atom_frac         0.24999959        0.38764189        0.88675662  C
       atom_frac         0.24999959        0.55342253        0.83244622  C
       atom_frac         0.24999959        0.62847898        0.56997714  H
       atom_frac         0.24999959        0.23664364        0.27483099  H
       atom_frac         0.24999959       -0.05850169        0.37152106  H
       atom_frac         0.24999959        0.03818750        0.76335565  H
       atom_frac         0.24999959        0.43002285        1.05850180  H
       atom_frac         0.24999959        0.72516900        0.96181336  H
       atom_frac         0.75000060        0.61235759        0.49911425  C
       atom_frac         0.75000060        0.44657781        0.27902485  C
       atom_frac         0.75000060        0.50088683        0.11324420  C
       atom_frac         0.75000060        0.72097564        0.16755296  C
       atom_frac         0.75000060        0.88675684        0.38764236  C
       atom_frac         0.75000060        0.83244782        0.55342301  C
       atom_frac         0.75000060        0.56997746        0.62847976  H
       atom_frac         0.75000060        0.27483201        0.23664517  H
       atom_frac         0.75000060        0.37152035       -0.05850262  H
       atom_frac         0.75000060        0.76335577        0.03818746  H
       atom_frac         0.75000060        1.05850121        0.43002204  H
       atom_frac         0.75000060        0.96181348        0.72516819  H

  Number of empty states per atom not set in control.in - providing a guess from actual geometry.
  | Total number of empty states used during s.c.f. cycle:       54
  If you use a very high smearing, use empty_states (per atom!) in control.in to increase this value.

  Structure-dependent array size parameters: 
  | Maximum number of distinct radial functions  :       29
  | Maximum number of basis functions            :      228
  | Number of Kohn-Sham states (occupied + empty):       96
------------------------------------------------------------

------------------------------------------------------------
          Preparing all fixed parts of the calculation.
------------------------------------------------------------
  Determining machine precision:
    2.225073858507201E-308
  Setting up grids for atomic and cluster calculations.

  Creating wave function, potential, and density for free atoms.

  Species: H

  List of occupied orbitals and eigenvalues:
    n    l              occ      energy [Ha]    energy [eV]
    1    0           1.0000        -0.237589        -6.4651


  Species: C

  List of occupied orbitals and eigenvalues:
    n    l              occ      energy [Ha]    energy [eV]
    1    0           2.0000       -10.038835      -273.1706
    2    0           2.0000        -0.502696       -13.6791
    2    1           2.0000        -0.191971        -5.2238


  Species: N

  List of occupied orbitals and eigenvalues:
    n    l              occ      energy [Ha]    energy [eV]
    1    0           2.0000       -14.128000      -384.4424
    2    0           2.0000        -0.681077       -18.5330
    2    1           3.0000        -0.259788        -7.0692


  Species: O

  List of occupied orbitals and eigenvalues:
    n    l              occ      energy [Ha]    energy [eV]
    1    0           2.0000       -18.898188      -514.2459
    2    0           2.0000        -0.878505       -23.9053
    2    1           4.0000        -0.331779        -9.0282


  Species: S

  List of occupied orbitals and eigenvalues:
    n    l              occ      energy [Ha]    energy [eV]
    1    0           2.0000       -88.105825     -2397.4815
    2    0           2.0000        -7.730144      -210.3479
    3    0           2.0000        -0.627748       -17.0819
    2    1           6.0000        -5.747971      -156.4103
    3    1           4.0000        -0.255786        -6.9603

  Creating fixed part of basis set: Ionic, confined, hydrogenic.
 
  H                    hydrogenic:
 
  List of hydrogenic basis orbitals: 
    n    l      effective z      eigenvalue [eV]  inner max. [A]     outer max. [A]     outer radius [A]   
    2    0         2.100000       -14.9728           0.193243           1.317208           4.583499
    2    1         3.500000       -41.6669           0.602369           0.602369           3.723403
 
 
  C                    hydrogenic:
 
  List of hydrogenic basis orbitals: 
    n    l      effective z      eigenvalue [eV]  inner max. [A]     outer max. [A]     outer radius [A]   
    2    1         1.700000        -9.7616           1.230570           1.230570           4.607917
    3    2         6.000000       -54.4224           0.792453           0.792453           3.883070
    2    0         4.900000       -81.6679           0.082559           0.562749           3.078220
 
 
  N                    hydrogenic:
 
  List of hydrogenic basis orbitals: 
    n    l      effective z      eigenvalue [eV]  inner max. [A]     outer max. [A]     outer radius [A]   
    2    1         1.800000       -10.9749           1.177451           1.177451           4.573712
    3    2         6.800000       -69.9026           0.704619           0.704619           3.538137
    3    0         5.800000       -50.8545           0.067388           1.191934           4.250239
 
 
  O                    hydrogenic:
 
  List of hydrogenic basis orbitals: 
    n    l      effective z      eigenvalue [eV]  inner max. [A]     outer max. [A]     outer radius [A]   
    2    1         1.800000       -10.9749           1.164242           1.164242           4.578029
    3    2         7.600000       -87.3180           0.624125           0.624125           3.251020
    3    0         6.400000       -61.9207           0.061167           1.081902           4.001998
 
 
  S                    ion:

  List of free ionic orbitals and eigenvalues:
    n    l      energy [Ha]    energy [eV]
    1    0       -89.127201     -2425.2745
    2    0        -8.724378      -237.4024
    3    0        -1.464668       -39.8556
    2    1        -6.744348      -183.5230
    3    1        -1.048520       -28.5317


  List of ionic basis orbitals and eigenvalues:
    n    l      energy [Ha]    energy [eV]    outer radius [A]
    3    2        -0.496135       -13.5005       4.539062
    3    0        -1.464653       -39.8552       3.642502

 
  S                    hydrogenic:
 
  List of hydrogenic basis orbitals: 
    n    l      effective z      eigenvalue [eV]  inner max. [A]     outer max. [A]     outer radius [A]   
    2    1         1.800000       -10.9749           1.168531           1.168531           4.594893
 

  Adding cutoff potential to free-atom effective potential.
  Creating atomic-like basis functions for current effective potential.

  Species H                   :

  List of atomic basis orbitals and eigenvalues:
    n    l      energy [Ha]    energy [eV]    outer radius [A]
    1    0        -0.237589        -6.4651       4.527807


  Species C                   :

  List of atomic basis orbitals and eigenvalues:
    n    l      energy [Ha]    energy [eV]    outer radius [A]
    1    0       -10.038835      -273.1706       1.934409
    2    0        -0.502696       -13.6791       4.496620
    2    1        -0.191971        -5.2238       4.551928


  Species N                   :

  List of atomic basis orbitals and eigenvalues:
    n    l      energy [Ha]    energy [eV]    outer radius [A]
    1    0       -14.128000      -384.4424       1.637919
    2    0        -0.681077       -18.5330       4.463241
    2    1        -0.259788        -7.0692       4.518138


  Species O                   :

  List of atomic basis orbitals and eigenvalues:
    n    l      energy [Ha]    energy [eV]    outer radius [A]
    1    0       -18.898188      -514.2459       1.415765
    2    0        -0.878505       -23.9053       4.413171
    2    1        -0.331779        -9.0282       4.522403


  Species S                   :

  List of atomic basis orbitals and eigenvalues:
    n    l      energy [Ha]    energy [eV]    outer radius [A]
    1    0       -88.105825     -2397.4815       0.682391
    2    0        -7.730144      -210.3479       2.317169
    3    0        -0.627748       -17.0819       4.483910
    2    1        -5.747971      -156.4103       2.555240
    3    1        -0.255786        -6.9603       4.539062

  Assembling full basis from fixed parts.
  | Species H :   atomic orbital   1 s accepted.
  | Species H :    hydro orbital   2 s accepted.
  | Species H :    hydro orbital   2 p accepted.
  | Species C :   atomic orbital   1 s accepted.
  | Species C :    hydro orbital   2 s accepted.
  | Species C :   atomic orbital   2 s accepted.
  | Species C :   atomic orbital   2 p accepted.
  | Species C :    hydro orbital   2 p accepted.
  | Species C :    hydro orbital   3 d accepted.
  | Species N :   atomic orbital   1 s accepted.
  | Species N :    hydro orbital   3 s accepted.
  | Species N :   atomic orbital   2 s accepted.
  | Species N :   atomic orbital   2 p accepted.
  | Species N :    hydro orbital   2 p accepted.
  | Species N :    hydro orbital   3 d accepted.
  | Species O :   atomic orbital   1 s accepted.
  | Species O :    hydro orbital   3 s accepted.
  | Species O :   atomic orbital   2 s accepted.
  | Species O :   atomic orbital   2 p accepted.
  | Species O :    hydro orbital   2 p accepted.
  | Species O :    hydro orbital   3 d accepted.
  | Species S :   atomic orbital   1 s accepted.
  | Species S :   atomic orbital   2 s accepted.
  | Species S :    ionic orbital   3 s accepted.
  | Species S :   atomic orbital   3 s accepted.
  | Species S :   atomic orbital   2 p accepted.
  | Species S :   atomic orbital   3 p accepted.
  | Species S :    hydro orbital   2 p accepted.
  | Species S :    ionic orbital   3 d accepted.
 
  Basis size parameters after reduction:
  | Total number of radial functions:       29
  | Total number of basis functions :      228
 
  Per-task memory consumption for arrays in subroutine allocate_ext:
  |           7.565172MB.
  Testing on-site integration grid accuracy.
  |  Species  Function  <phi|h_atom|phi> (log., in eV)  <phi|h_atom|phi> (rad., in eV)
           1        1                 -6.4663192853                 -6.4651273558
           1        2                 13.7111246313                 13.7170609718
           1        3                 25.2673269279                 25.2674696378
           2        4               -273.1705927641               -273.1705631568
           2        5                -10.7109323383                -10.7107120029
           2        6                 17.4381822266                 17.4352413244
           2        7                 -5.2255326521                 -5.2270484734
           2        8                  8.6835629259                  8.6603288385
           2        9                 27.4952418996                 27.4953360207
           3       10               -384.4424306495               -384.4423701208
           3       11                 12.5842251816                 12.5842222903
           3       12                -15.7264628251                -15.7264433455
           3       13                 -7.0696854293                 -7.0701769954
           3       14                  8.8090390882                  8.7901077751
           3       15                 35.9586762123                 35.9588528632
           4       16               -514.2458688638               -514.2457643834
           4       17                 15.1795651126                 15.1795290741
           4       18                -21.5359799773                -21.5360846186
           4       19                 -9.0283069236                 -9.0284644067
           4       20                  8.3027758564                  8.2834874195
           4       21                 45.8339351984                 45.8338762259
           5       22              -2397.4814915323              -2397.4804563634
           5       23               -210.3479335736               -210.3479265952
           5       24                -16.8079362322                -16.8079092816
           5       25                  7.5772439785                  7.5675998324
           5       26               -156.4102581151               -156.4102580951
           5       27                 -6.9617737483                 -6.9640288036
           5       28                  7.5696988470                  7.5151244831 ***
           5       29                  6.0973034823                  6.0928113248
 * Note: Onsite integrals marked "***" above are less accurate than
 * onsite_accuracy_threshold =    0.03000 eV. Usually, this is harmless.
 * When in doubt, tighten the "radial" and/or "radial_multiplier" flags to check.

  Preparing densities etc. for the partition functions (integrals / Hartree potential).

  Preparations completed.
  max(cpu_time)          :      0.448 s.
  Wall clock time (cpu1) :      0.740 s.
------------------------------------------------------------

------------------------------------------------------------
          Begin self-consistency loop: Initialization.

          Date     :  20191214, Time     :  004331.857
------------------------------------------------------------

  Initializing index lists of integration centers etc. from given atomic structure:
  Mapping all atomic coordinates to central unit cell.

  Initializing the k-points
          Using symmetry for reducing the k-points
  | k-points reduced from:       27 to       14
  | Number of k-points                             :        14
  The eigenvectors in the calculations are COMPLEX.
  | Number of basis functions in the Hamiltonian integrals :      2584
  | Number of basis functions in a single unit cell        :       228
  | Number of centers in hartree potential         :      1716
  | Number of centers in hartree multipole         :      1144
  | Number of centers in electron density summation:       908
  | Number of centers in basis integrals           :       978
  | Number of centers in integrals                 :       380
  | Number of centers in hamiltonian               :       910
  | Consuming         17 KiB for k_phase.
  | Number of super-cells (origin) [n_cells]                     :         343
  | Number of super-cells (after PM_index) [n_cells]             :          82
  | Number of super-cells in hamiltonian [n_cells_in_hamiltonian]:          82
  | Size of matrix packed + index [n_hamiltonian_matrix_size] :      285601

  Initializing relaxation algorithms.
  Finished initialization of distributed Hessian storage.
  | Global dimension:        81
  | BLACS block size:         2
  | Number of workers:       41

  | Estimated reciprocal-space cutoff momentum G_max:         3.21384423 bohr^-1 .
  | Reciprocal lattice points for long-range Hartree potential:     886
  Checking for possible mapping of k-points to SMP-nodes
  Running on 1 SMP-nodes
  Mapping of k-points to SMP-nodes is *NOT* possible:
  | 14 k-points  : 1 SMP-nodes
 * The calculation will run, but some performance degradation might result.
 * Check the number of actual k-points above, and consider using a number
 * compute nodes that can be divided cleanly by the number of k points
 * (e.g., two k-points per node, two nodes per k-point, etc.).
  Using simple linear distribution as default method for k-point parallelism.
  * Using 56 tasks for Scalapack Eigenvalue solver.
  Detailed listing of tasks and assigned k-points:
   Task     0 k-point     1 on d015
   Task     1 k-point     1 on d015
   Task     2 k-point     1 on d015
   Task     3 k-point     1 on d015
   Task     4 k-point     2 on d015
   Task     5 k-point     2 on d015
   Task     6 k-point     2 on d015
   Task     7 k-point     2 on d015
   Task     8 k-point     3 on d015
   Task     9 k-point     3 on d015
   Task    10 k-point     3 on d015
   Task    11 k-point     3 on d015
   Task    12 k-point     4 on d015
   Task    13 k-point     4 on d015
   Task    14 k-point     4 on d015
   Task    15 k-point     4 on d015
   Task    16 k-point     5 on d015
   Task    17 k-point     5 on d015
   Task    18 k-point     5 on d015
   Task    19 k-point     5 on d015
   Task    20 k-point     6 on d015
   Task    21 k-point     6 on d015
   Task    22 k-point     6 on d015
   Task    23 k-point     6 on d015
   Task    24 k-point     7 on d015
   Task    25 k-point     7 on d015
   Task    26 k-point     7 on d015
   Task    27 k-point     7 on d015
   Task    28 k-point     8 on d015
   Task    29 k-point     8 on d015
   Task    30 k-point     8 on d015
   Task    31 k-point     8 on d015
   Task    32 k-point     9 on d015
   Task    33 k-point     9 on d015
   Task    34 k-point     9 on d015
   Task    35 k-point     9 on d015
   Task    36 k-point    10 on d015
   Task    37 k-point    10 on d015
   Task    38 k-point    10 on d015
   Task    39 k-point    10 on d015
   Task    40 k-point    11 on d015
   Task    41 k-point    11 on d015
   Task    42 k-point    11 on d015
   Task    43 k-point    11 on d015
   Task    44 k-point    12 on d015
   Task    45 k-point    12 on d015
   Task    46 k-point    12 on d015
   Task    47 k-point    12 on d015
   Task    48 k-point    13 on d015
   Task    49 k-point    13 on d015
   Task    50 k-point    13 on d015
   Task    51 k-point    13 on d015
   Task    52 k-point    14 on d015
   Task    53 k-point    14 on d015
   Task    54 k-point    14 on d015
   Task    55 k-point    14 on d015
  K-point:     1 Tasks:     4 split into      2 X      2 BLACS grid
  Calculating block size based on n_basis =          228  max_nprow =            2  max_npcol =            2
  ScaLAPACK block size set to:           16
  Allocating        0.205 MB for ovlp_complex
  Allocating        0.205 MB for ham_complex
  Allocating        0.205 MB for eigenvec_complex
  Required Scalapack workspace - INTEGER:            1  REAL:             1  COMPLEX:            1
  Partitioning the integration grid into batches with parallel hashing+maxmin method.
  | Number of batches:     1650
  | Maximal batch size:     117
  | Minimal batch size:       4
  | Average batch size:      76.335
  | Standard deviation of batch sizes:      16.922

  Integration load balanced across    56 MPI tasks.
  Work distribution over tasks is as follows:
  Task     0 has       2298 integration points.
  Task     1 has       2296 integration points.
  Task     2 has       2192 integration points.
  Task     3 has       2300 integration points.
  Task     4 has       2302 integration points.
  Task     5 has       2194 integration points.
  Task     6 has       2298 integration points.
  Task     7 has       2301 integration points.
  Task     8 has       2239 integration points.
  Task     9 has       2304 integration points.
  Task    10 has       2191 integration points.
  Task    11 has       2205 integration points.
  Task    12 has       2243 integration points.
  Task    13 has       2236 integration points.
  Task    14 has       2239 integration points.
  Task    15 has       2238 integration points.
  Task    16 has       2238 integration points.
  Task    17 has       2293 integration points.
  Task    18 has       2275 integration points.
  Task    19 has       2300 integration points.
  Task    20 has       2272 integration points.
  Task    21 has       2194 integration points.
  Task    22 has       2235 integration points.
  Task    23 has       2200 integration points.
  Task    24 has       2217 integration points.
  Task    25 has       2192 integration points.
  Task    26 has       2200 integration points.
  Task    27 has       2294 integration points.
  Task    28 has       2240 integration points.
  Task    29 has       2272 integration points.
  Task    30 has       2289 integration points.
  Task    31 has       2277 integration points.
  Task    32 has       2298 integration points.
  Task    33 has       2235 integration points.
  Task    34 has       2195 integration points.
  Task    35 has       2237 integration points.
  Task    36 has       2190 integration points.
  Task    37 has       2236 integration points.
  Task    38 has       2296 integration points.
  Task    39 has       2283 integration points.
  Task    40 has       2235 integration points.
  Task    41 has       2270 integration points.
  Task    42 has       2239 integration points.
  Task    43 has       2193 integration points.
  Task    44 has       2281 integration points.
  Task    45 has       2238 integration points.
  Task    46 has       2295 integration points.
  Task    47 has       2232 integration points.
  Task    48 has       2193 integration points.
  Task    49 has       2277 integration points.
  Task    50 has       2267 integration points.
  Task    51 has       2196 integration points.
  Task    52 has       2299 integration points.
  Task    53 has       2302 integration points.
  Task    54 has       2192 integration points.
  Task    55 has       2209 integration points.
  Initializing partition tables, free-atom densities, potentials, etc. across the integration grid (initialize_grid_storage).
  | initialize_grid_storage: Actual outermost partition radius vs. multipole_radius_free
  | (-- VB: in principle, multipole_radius_free should be larger, hence this output)
  | Species        1: Confinement radius =              4.999999999999999 AA, multipole_radius_free =              5.054417573612229 AA.
  | Species        1: outer_partition_radius set to              5.054417573612229 AA .
  | Species        2: Confinement radius =              4.999999999999999 AA, multipole_radius_free =              5.019602836301480 AA.
  | Species        2: outer_partition_radius set to              5.019602836301480 AA .
  | Species        3: Confinement radius =              4.999999999999999 AA, multipole_radius_free =              5.043624274424571 AA.
  | Species        3: outer_partition_radius set to              5.043624274424571 AA .
  | Species        4: Confinement radius =              4.999999999999999 AA, multipole_radius_free =              5.048384829883283 AA.
  | Species        4: outer_partition_radius set to              5.048384829883283 AA .
  | Species        5: Confinement radius =              4.999999999999999 AA, multipole_radius_free =              5.005414751018925 AA.
  | Species        5: outer_partition_radius set to              5.005414751018925 AA .
  | The sparse table of interatomic distances needs       3037.97 kbyte instead of      7651.87 kbyte of memory.
  | Net number of integration points:   125952
  | of which are non-zero points    :    99056
  | Numerical average free-atom electrostatic potential    :     -7.82643808 eV
  Renormalizing the initial density to the exact electron count on the 3D integration grid.
  | Initial density: Formal number of electrons (from input files) :      84.0000000000
  | Integrated number of electrons on 3D grid     :      84.0031227614
  | Charge integration error                      :       0.0031227614
  | Normalization factor for density and gradient :       0.9999628257
  Obtaining max. number of non-zero basis functions in each batch (get_n_compute_maxes).
  | Maximal number of non-zero basis functions:      460 in task     0
  | Maximal number of non-zero basis functions:      464 in task     1
  | Maximal number of non-zero basis functions:      442 in task     2
  | Maximal number of non-zero basis functions:      472 in task     3
  | Maximal number of non-zero basis functions:      448 in task     4
  | Maximal number of non-zero basis functions:      438 in task     5
  | Maximal number of non-zero basis functions:      442 in task     6
  | Maximal number of non-zero basis functions:      438 in task     7
  | Maximal number of non-zero basis functions:      459 in task     8
  | Maximal number of non-zero basis functions:      462 in task     9
  | Maximal number of non-zero basis functions:      451 in task    10
  | Maximal number of non-zero basis functions:      434 in task    11
  | Maximal number of non-zero basis functions:      448 in task    12
  | Maximal number of non-zero basis functions:      463 in task    13
  | Maximal number of non-zero basis functions:      453 in task    14
  | Maximal number of non-zero basis functions:      454 in task    15
  | Maximal number of non-zero basis functions:      454 in task    16
  | Maximal number of non-zero basis functions:      439 in task    17
  | Maximal number of non-zero basis functions:      454 in task    18
  | Maximal number of non-zero basis functions:      444 in task    19
  | Maximal number of non-zero basis functions:      438 in task    20
  | Maximal number of non-zero basis functions:      461 in task    21
  | Maximal number of non-zero basis functions:      461 in task    22
  | Maximal number of non-zero basis functions:      432 in task    23
  | Maximal number of non-zero basis functions:      443 in task    24
  | Maximal number of non-zero basis functions:      424 in task    25
  | Maximal number of non-zero basis functions:      470 in task    26
  | Maximal number of non-zero basis functions:      428 in task    27
  | Maximal number of non-zero basis functions:      463 in task    28
  | Maximal number of non-zero basis functions:      463 in task    29
  | Maximal number of non-zero basis functions:      432 in task    30
  | Maximal number of non-zero basis functions:      466 in task    31
  | Maximal number of non-zero basis functions:      442 in task    32
  | Maximal number of non-zero basis functions:      463 in task    33
  | Maximal number of non-zero basis functions:      466 in task    34
  | Maximal number of non-zero basis functions:      462 in task    35
  | Maximal number of non-zero basis functions:      455 in task    36
  | Maximal number of non-zero basis functions:      449 in task    37
  | Maximal number of non-zero basis functions:      437 in task    38
  | Maximal number of non-zero basis functions:      471 in task    39
  | Maximal number of non-zero basis functions:      459 in task    40
  | Maximal number of non-zero basis functions:      466 in task    41
  | Maximal number of non-zero basis functions:      461 in task    42
  | Maximal number of non-zero basis functions:      458 in task    43
  | Maximal number of non-zero basis functions:      432 in task    44
  | Maximal number of non-zero basis functions:      467 in task    45
  | Maximal number of non-zero basis functions:      441 in task    46
  | Maximal number of non-zero basis functions:      459 in task    47
  | Maximal number of non-zero basis functions:      435 in task    48
  | Maximal number of non-zero basis functions:      441 in task    49
  | Maximal number of non-zero basis functions:      449 in task    50
  | Maximal number of non-zero basis functions:      467 in task    51
  | Maximal number of non-zero basis functions:      447 in task    52
  | Maximal number of non-zero basis functions:      452 in task    53
  | Maximal number of non-zero basis functions:      439 in task    54
  | Maximal number of non-zero basis functions:      448 in task    55
  Allocating        0.334 MB for KS_eigenvector_complex
  Integrating Hamiltonian matrix: batch-based integration.
  Time summed over all CPUs for integration: real work       11.162 s, elapsed       18.092 s => Consider using load balancing!
  Integrating overlap matrix.
  Time summed over all CPUs for integration: real work        7.943 s, elapsed       12.704 s
  Decreasing sparse matrix size:
   Tolerance:  9.999999824516700E-014
   Hamiltonian matrix
  | Array has   244098 nonzero elements out of   285601 elements
  | Sparsity factor is 0.145
   Overlap matrix
  | Array has   228787 nonzero elements out of   285601 elements
  | Sparsity factor is 0.199
  New size of hamiltonian matrix:      244135
  Deallocating overlap matrix.

  Updating Kohn-Sham eigenvalues and eigenvectors using ELSI and the ELPA eigensolver.
  Singularity check in k-point 1 (analysis for other k-points may follow below):
  Overlap matrix is not singular
  | Lowest and highest eigenvalues :  0.6409E-03,  0.7921E+01
  Finished singularity check of overlap matrix
  | Time :     0.011 s
  Finished Cholesky decomposition
  | Time :     0.002 s
  Finished transformation to standard eigenproblem
  | Time :     0.003 s
  Starting ELPA eigensolver
  Finished solving standard eigenproblem
  | Time :     0.016 s
  Finished back-transformation of eigenvectors
  | Time :     0.002 s

  Obtaining occupation numbers and chemical potential using ELSI.
  | Chemical potential (Fermi level):    -7.58144609 eV
  Writing Kohn-Sham eigenvalues.
  K-point:       1 at    0.000000    0.000000    0.000000 (in units of recip. lattice)

  State    Occupation    Eigenvalue [Ha]    Eigenvalue [eV]
      1       2.00000         -10.154823         -276.32680
      2       2.00000         -10.154823         -276.32680
      3       2.00000         -10.154641         -276.32184
      4       2.00000         -10.154641         -276.32183
      5       2.00000         -10.154639         -276.32180
      6       2.00000         -10.154639         -276.32179
      7       2.00000         -10.154204         -276.30995
      8       2.00000         -10.154203         -276.30993
      9       2.00000         -10.154203         -276.30991
     10       2.00000         -10.154202         -276.30989
     11       2.00000         -10.154020         -276.30494
     12       2.00000         -10.154020         -276.30494
     13       2.00000          -0.984479          -26.78903
     14       2.00000          -0.976496          -26.57180
     15       2.00000          -0.878896          -23.91599
     16       2.00000          -0.878894          -23.91591
     17       2.00000          -0.870207          -23.67953
     18       2.00000          -0.870204          -23.67945
     19       2.00000          -0.738695          -20.10092
     20       2.00000          -0.738693          -20.10087
     21       2.00000          -0.736295          -20.03561
     22       2.00000          -0.736293          -20.03556
     23       2.00000          -0.661399          -17.99759
     24       2.00000          -0.644707          -17.54338
     25       2.00000          -0.616249          -16.76900
     26       2.00000          -0.610684          -16.61756
     27       2.00000          -0.585862          -15.94211
     28       2.00000          -0.567058          -15.43043
     29       2.00000          -0.556085          -15.13184
     30       2.00000          -0.556082          -15.13177
     31       2.00000          -0.552423          -15.03219
     32       2.00000          -0.552420          -15.03212
     33       2.00000          -0.514992          -14.01365
     34       2.00000          -0.495359          -13.47941
     35       2.00000          -0.495354          -13.47928
     36       2.00000          -0.490513          -13.34753
     37       2.00000          -0.490508          -13.34741
     38       2.00000          -0.474883          -12.92223
     39       2.00000          -0.415616          -11.30949
     40       2.00000          -0.415611          -11.30936
     41       2.00000          -0.382152          -10.39888
     42       2.00000          -0.382149          -10.39881
     43       0.00000          -0.211492           -5.75498
     44       0.00000          -0.211489           -5.75492
     45       0.00000          -0.194567           -5.29445
     46       0.00000          -0.194566           -5.29441
     47       0.00000          -0.132488           -3.60518
     48       0.00000          -0.103623           -2.81973
     49       0.00000          -0.093080           -2.53283
     50       0.00000          -0.033968           -0.92431
     51       0.00000          -0.023072           -0.62782
     52       0.00000          -0.023067           -0.62768
     53       0.00000          -0.016131           -0.43896
     54       0.00000           0.007162            0.19489
     55       0.00000           0.007170            0.19510
     56       0.00000           0.047919            1.30394
     57       0.00000           0.050995            1.38763
     58       0.00000           0.050997            1.38769
     59       0.00000           0.065652            1.78648
     60       0.00000           0.065659            1.78667
     61       0.00000           0.122430            3.33148
     62       0.00000           0.122434            3.33159
     63       0.00000           0.131518            3.57878
     64       0.00000           0.131534            3.57921
     65       0.00000           0.155774            4.23884
     66       0.00000           0.173747            4.72789
     67       0.00000           0.173748            4.72793
     68       0.00000           0.189282            5.15062
     69       0.00000           0.189306            5.15128
     70       0.00000           0.207294            5.64075
     71       0.00000           0.212839            5.79163
     72       0.00000           0.225611            6.13918
     73       0.00000           0.255309            6.94730
[...]
  -----------------------------------------------------------------------------------------------------------------------------------------------------------
  Sum of all contributions        :    -0.7180096696E-02   -0.1905254483E-01   -0.2297633260E-02    0.8489860380E-07    0.3985666662E-06    0.1157756195E-02

  +-------------------------------------------------------------------+
  |              Analytical stress tensor - Symmetrized               |
  |                  Cartesian components [eV/A**3]                   |
  +-------------------------------------------------------------------+
  |                x                y                z                |
  |                                                                   |
  |  x        -0.00002929       0.00000000       0.00000000           |
  |  y         0.00000000      -0.00007773       0.00000472           |
  |  z         0.00000000       0.00000472      -0.00000937           |
  |                                                                   |
  |  Pressure:       0.00003880   [eV/A**3]                           |
  |                                                                   |
  +-------------------------------------------------------------------+

 * Warning: Stress tensor is anisotropic. Be aware that pressure is an isotropic quantity.

  Timings for VdW correction (Tkatchenko-Scheffler 2009 or later):
  | CPU time:        1.035 s, Wall clock time:        1.036 s.
  Removing unitary transformations (pure translations, rotations) from forces on atoms.
  Atomic forces before filtering:
  | Net force on center of mass :  -0.285394E-07  0.131903E-03  0.608842E-06 eV/A
  Atomic forces after filtering:
  | Net force on center of mass :  -0.680565E-20  0.143735E-17  0.113246E-17 eV/A

  Energy and forces in a compact form:
  | Total energy uncorrected      :         -0.126287804683632E+05 eV
  | Total energy corrected        :         -0.126287804683632E+05 eV  <-- do not rely on this value for anything but (periodic) metals
  | Electronic free energy        :         -0.126287804683632E+05 eV
  Total atomic forces (unitary forces cleaned) [eV/Ang]:
  |    1          0.498096480040891E-05          0.159841478676004E-02          0.571642108457412E-02
  |    2         -0.130652018696749E-04         -0.245001003034868E-02         -0.310252764421891E-02
  |    3          0.356907639858510E-05          0.307541537572124E-02         -0.327388040925753E-02
  |    4         -0.130137048992800E-04         -0.612154894272151E-03          0.327440987460172E-02
  |    5          0.496397864642304E-05         -0.588042064453132E-02         -0.722321418792758E-03
  |    6         -0.144757138042855E-04          0.440992710464767E-02         -0.232936148377193E-02
  |    7         -0.792319123870924E-05         -0.170827455060322E-03         -0.813262527726663E-03
  |    8         -0.756809533139271E-05         -0.141655551585485E-03         -0.650059991126064E-03
  |    9         -0.753685676150055E-05         -0.572341087151143E-03          0.104787704490778E-02
  |   10         -0.768704521337729E-05         -0.165031849520200E-02          0.333223838483450E-03
  |   11         -0.800899017979133E-05          0.116283071007916E-02         -0.907894266775332E-03
  |   12         -0.732348950761295E-05          0.121601083262258E-02          0.469881176407476E-03
  |   13         -0.375886824533841E-05          0.301411749041681E-02          0.345032688865071E-02
  |   14          0.132955822747416E-04         -0.579303966841329E-03         -0.354813291805770E-02
  |   15         -0.494713029088609E-05         -0.600429012809206E-02          0.713644050653813E-03
  |   16          0.142657897998785E-04          0.454134495993215E-02          0.242928810166317E-02
  |   17         -0.479451985800493E-05          0.169772021918355E-02         -0.564456350906848E-02
  |   18          0.130597392701799E-04         -0.253942513784656E-02          0.305753848610909E-02
  |   19          0.755246918328438E-05         -0.639959632057867E-03         -0.117006189610828E-02
  |   20          0.759549295153042E-05         -0.178830248464870E-02         -0.323446783106744E-03
  |   21          0.798043065375510E-05          0.122645628645079E-02          0.822159664568781E-03
  |   22          0.737243701278422E-05          0.119210399460483E-02         -0.573699216913425E-03
  |   23          0.789187407707150E-05         -0.122666272779627E-03          0.995451312262924E-03
  |   24          0.757497213121128E-05          0.173340199984302E-04          0.748990542040790E-03

  ------------------------------------ 
  Start decomposition of the XC Energy 
  ------------------------------------ 
  X and C from original XC functional choice 
  Hartree-Fock Energy :          0.000000000 Ha              0.000000000 eV
  X Energy            :        -66.189630352 Ha          -1801.111481419 eV
  C Energy            :         -2.763028624 Ha            -75.185834275 eV
  Total XC Energy     :        -68.952658976 Ha          -1876.297315694 eV
  ------------------------------------ 
  LDA X and C from self-consistent density 
  X Energy LDA        :        -59.918616375 Ha          -1630.468508899 eV
  C Energy LDA        :         -5.344427278 Ha           -145.429265581 eV
  ------------------------------------ 
  End decomposition of the XC Energy 
  ------------------------------------ 

------------------------------------------------------------
  Relaxation / MD: End force evaluation.       :  max(cpu_time)    wall_clock(cpu1)
  | Time for this force evaluation             :       25.506 s          25.511 s

------------------------------------------------------------
  Geometry optimization: Attempting to predict improved coordinates.

  +-------------------------------------------------------------------+
  | Generalized derivatives on lattice vectors [eV/A]                 |
  +-------------------------------------------------------------------+
  |lattice_vector      -0.00113708       0.00000001       0.00000006  |
  |lattice_vector       0.00000005      -0.00274337      -0.00002523  |
  |lattice_vector       0.00000007       0.00019698      -0.00039667  |
  +-------------------------------------------------------------------+
  | Forces on lattice vectors cleaned from atomic contributions [eV/A]|
  +-------------------------------------------------------------------+
  |lattice_vector       0.00113708      -0.00000001      -0.00000006  |
  |lattice_vector      -0.00000005       0.00274337       0.00002523  |
  |lattice_vector      -0.00000007      -0.00019698       0.00039667  |
  +-------------------------------------------------------------------+
  Removing unitary transformations (pure translations, rotations) from forces on atoms.
  Atomic forces before filtering:
  | Net force on center of mass :  -0.680565E-20  0.143735E-17  0.113246E-17 eV/A
  Atomic forces after filtering:
  | Net force on center of mass :  -0.680565E-20  0.147819E-17  0.113246E-17 eV/A
  Net remaining forces (excluding translations, rotations) in present geometry:
  || Forces on atoms   || =   0.600429E-02 eV/A.
  || Forces on lattice || =   0.274337E-02 eV/A^3.
  Maximum force component is  0.600429E-02 eV/A.
  Present geometry is converged.

------------------------------------------------------------
  Final atomic structure:
                         x [A]             y [A]             z [A]
  lattice_vector         6.31450752        0.00000007       -0.00000011
  lattice_vector        -0.00000004        6.70475834       -0.00610114
  lattice_vector        -0.00000008       -3.34518168        5.79268044

            atom         1.57863852        1.32417588        3.39882517  C
            atom         1.57863990        0.26473285        2.48567701  C
            atom         1.57863909       -1.05352720        2.94506316  C
            atom         1.57864008       -1.31462271        4.31916164  C
            atom         1.57863874       -0.25770847        5.23117444  C
            atom         1.57863967        1.06276592        4.77016670  C
            atom         1.57864201        2.35272843        3.03847135  H
            atom         1.57864414        0.47333279        1.41475447  H
            atom         1.57864289       -1.88005063        2.23472174  H
            atom         1.57864456       -2.34640160        4.67383895  H
            atom         1.57864246       -0.45969523        6.30214914  H
            atom         1.57864364        1.88592268        5.48620698  H
            atom         4.73586951        2.29957915        2.84397169  C
            atom         4.73586849        2.03528588        1.47048974  C
            atom         4.73586982        3.09006321        0.55601417  C
            atom         4.73586887        4.41160278        1.01395296  C
            atom         4.73587001        4.67620203        2.38467950  C
            atom         4.73586867        3.61889952        3.30029651  C
            atom         4.73586574        1.47471025        3.55623004  H
            atom         4.73586407        1.00269935        1.11818903  H
            atom         4.73586611        2.88553437       -0.51448081  H
            atom         4.73586487        5.23311972        0.29603783  H
            atom         4.73586651        5.70558921        2.74262958  H
            atom         4.73586443        3.82999964        4.37072928  H

  Fractional coordinates:
                         L1                L2                L3
       atom_frac         0.25000185        0.49049822        0.58726143  C
       atom_frac         0.25000207        0.25371027        0.42937376  C
       atom_frac         0.25000194        0.09657927        0.50851285  C
       atom_frac         0.25000210        0.17603100        0.74580942  C
       atom_frac         0.25000189        0.41234374        0.90350060  C
       atom_frac         0.25000204        0.56966544        0.82408177  C
       atom_frac         0.25000241        0.61293146        0.52518191  H
       atom_frac         0.25000274        0.19255125        0.24443421  H
       atom_frac         0.25000254       -0.08797394        0.38569105  H
       atom_frac         0.25000281        0.05262713        0.80690798  H
       atom_frac         0.25000248        0.47449412        1.08845019  H
       atom_frac         0.25000267        0.75420736        0.94788735  H
       atom_frac         0.74999825        0.58823903        0.49157911  C
       atom_frac         0.74999808        0.43043865        0.25430645  C
       atom_frac         0.74999829        0.50903343        0.09652180  C
       atom_frac         0.74999814        0.74570503        0.17582580  C
       atom_frac         0.74999833        0.90331362        0.41262259  C
       atom_frac         0.74999812        0.82444038        0.57060400  C
       atom_frac         0.74999765        0.52652639        0.61447245  H
       atom_frac         0.74999738        0.24598986        0.19329392  H
       atom_frac         0.74999770        0.38626161       -0.08840883  H
       atom_frac         0.74999751        0.80642999        0.05195489  H
       atom_frac         0.74999777        1.08777181        0.47461039  H
       atom_frac         0.74999745        0.94818745        0.75552491  H
------------------------------------------------------------
  |------------------------------------------------------
  | Final ELSI Output
  |------------------------------------------------------
  |
  | Physical Properties
  |   Number of electrons       :        0.84000000E+02
  |   Number of spins           :                     1
  |   Number of k-points        :                    14
  |   Number of states          :                    96
  |
  | Matrix Properties
  |   Matrix format             :           BLACS_DENSE
  |   Number of basis functions :                   228
  |   Matrix sparsity           :        0.15389351E-02
  |
  | Computational Details
  |   Parallel mode             :            MULTI_PROC
  |   Number of MPI tasks       :                    56
  |   Solver requested          :                  ELPA
  |   Number of ELSI calls      :                   168
  |
  |------------------------------------------------------
  | ELSI Project (c)  elsi-interchange.org
  |------------------------------------------------------

------------------------------------------------------------------------------
  Final output of selected total energy values:

  The following output summarizes some interesting total energy values
  at the end of a run (AFTER all relaxation, molecular dynamics, etc.).

  | Total energy of the DFT / Hartree-Fock s.c.f. calculation      :         -12628.780468363 eV
  | Final zero-broadening corrected energy (caution - metals only) :         -12628.780468363 eV
  | For reference only, the value of 1 Hartree used in FHI-aims is :             27.211384500 eV
  | For reference only, the overall average (free atom contribution
  | + realspace contribution) of the electrostatic potential after
  | s.c.f. convergence is                                          :             -6.377864898 eV

  Before relying on these values, please be sure to understand exactly which
  total energy value is referred to by a given number. Different objects may
  all carry the same name 'total energy'. Definitions:

  Total energy of the DFT / Hartree-Fock s.c.f. calculation:
  | Note that this energy does not include ANY quantities calculated after the
  | s.c.f. cycle, in particular not ANY RPA, MP2, etc. many-body perturbation terms.

  Final zero-broadening corrected energy:
  | For metallic systems only, a broadening of the occupation numbers at the Fermi
  | level can be extrapolated back to zero broadening by an electron-gas inspired
  | formula. For all systems that are not real metals, this value can be
  | meaningless and should be avoided.

------------------------------------------------------------------------------
  Methods described in the following list of references were used in this FHI-aims run.
  If you publish the results, please make sure to cite these reference if they apply.
  FHI-aims is an academic code, and for our developers (often, Ph.D. students
  and postdocs), scientific credit in the community is essential.
  Thank you for helping us!

  For any use of FHI-aims, please cite:

    Volker Blum, Ralf Gehrke, Felix Hanke, Paula Havu, Ville Havu,
    Xinguo Ren, Karsten Reuter, and Matthias Scheffler
    'Ab initio molecular simulations with numeric atom-centered orbitals'
    Computer Physics Communications 180, 2175-2196 (2009)
    http://dx.doi.org/10.1016/j.cpc.2009.06.022


  For the analytical stress tensor used in your run, please cite:

    Franz Knuth, Christian Carbogno, Viktor Atalla, Volker Blum, Matthias Scheffler
    'All-electron formalism for total energy strain derivatives and
    stress tensor components for numeric atom-centered orbitals'
    Computer Physics Communications 190, 33-50 (2015).
    http://dx.doi.org/10.1016/j.cpc.2015.01.003


  The provided symmetry information was generated with SPGlib:

    Atsushi Togo, Yusuke Seto, Dimitar Pashov
    SPGlib 1.7.3 obtained from http://spglib.sourceforge.net
    Copyright (C) 2008 Atsushi Togo


  The scalable eigensolver library ELPA was used in your run.
  ELPA is essential especially for large systems on hundreds or thousands of CPUs.
  For ELPA, please cite:

    Andreas Marek, Volker Blum, Rainer Johanni, Ville Havu, Bruno Lang,
    Thomas Auckenthaler, Alexander Heinecke, Hans-Joachim Bungartz, and Hermann Lederer,
    'The ELPA Library - Scalable Parallel Eigenvalue Solutions
    for Electronic Structure Theory and Computational Science'
    The Journal of Physics: Condensed Matter 26, 213201 (2014).
    http://dx.doi.org/10.1088/0953-8984/26/21/213201


  The ELSI infrastructure was used in your run to solve the Kohn-Sham electronic structure.
  Please check out http://elsi-interchange.org to learn more.
  If scalability is important for your project, please acknowledge ELSI by citing:

    V. W-z. Yu, F. Corsetti, A. Garcia, W. P. Huhn, M. Jacquelin, W. Jia,
    B. Lange, L. Lin, J. Lu, W. Mi, A. Seifitokaldani, A. Vazquez-Mayagoitia,
    C. Yang, H. Yang, and V. Blum
    'ELSI: A unified software interface for Kohn-Sham electronic structure solvers'
    Computer Physics Communications 222, 267-285 (2018).
    http://dx.doi.org/10.1016/j.cpc.2017.09.007


  For the real-space grid partitioning and parallelization used in this calculation, please cite:

    Ville Havu, Volker Blum, Paula Havu, and Matthias Scheffler,
    'Efficient O(N) integration for all-electron electronic structure calculation'
    'using numerically tabulated basis functions'
    Journal of Computational Physics 228, 8367-8379 (2009).
    http://dx.doi.org/10.1016/j.jcp.2009.08.008

  Of course, there are many other important community references, e.g., those cited in the
  above references. Our list is limited to references that describe implementations in the
  FHI-aims code. The reason is purely practical (length of this list) - please credit others as well.

------------------------------------------------------------
          Leaving FHI-aims.
          Date     :  20191214, Time     :  005259.237

          Computational steps:
          | Number of self-consistency cycles          :          167
          | Number of SCF (re)initializations          :           22
          | Number of relaxation steps                 :           21

          Detailed time accounting                     :  max(cpu_time)    wall_clock(cpu1)
          | Total time                                 :      567.528 s         568.186 s
          | Preparation time                           :        0.448 s           0.740 s
          | Boundary condition initalization           :        7.612 s           7.625 s
          | Grid partitioning                          :        2.024 s           2.021 s
          | Preloading free-atom quantities on grid    :       13.267 s          13.278 s
          | Free-atom superposition energy             :        1.795 s           1.794 s
          | Total time for integrations                :       58.214 s          58.199 s
          | Total time for solution of K.-S. equations :        8.055 s           8.082 s
          | Total time for EV reorthonormalization     :        0.240 s           0.137 s
          | Total time for density & force components  :      228.029 s         227.976 s
          | Total time for mixing & preconditioning    :       39.696 s          43.634 s
          | Total time for Hartree multipole update    :        0.822 s           0.815 s
          | Total time for Hartree multipole sum       :      177.424 s         177.429 s
          | Total time for total energy evaluation     :        0.228 s           0.396 s
          | Total time for vdW correction              :       22.307 s          22.319 s

          Partial memory accounting:
          | Residual value for overall tracked memory usage across tasks:     0.000000 MB (should be 0.000000 MB)
          | Peak values for overall tracked memory usage:
          |   Minimum:       13.728 MB (on task 34 after allocating d_wave)
          |   Maximum:       14.769 MB (on task 42 after allocating d_wave)
          |   Average:       14.236 MB
          | Largest tracked array allocation:
          |   Minimum:        2.570 MB (hessian_basis_wave on task 34)
          |   Maximum:        2.840 MB (hessian_basis_wave on task 42)
          |   Average:        2.716 MB
          Note:  These values currently only include a subset of arrays which are explicitly tracked.
          The "true" memory usage will be greater.

          Have a nice day.
------------------------------------------------------------
