------------------------------------------------------------
          Invoking FHI-aims ...
          Version 190522
          Compiled on 2019/10/10 at 22:48:22 on host coe.psc.edu.

          When using FHI-aims, please cite the following reference:

          Volker Blum, Ralf Gehrke, Felix Hanke, Paula Havu,
          Ville Havu, Xinguo Ren, Karsten Reuter, and Matthias Scheffler,
          'Ab Initio Molecular Simulations with Numeric Atom-Centered Orbitals',
          Computer Physics Communications 180, 2175-2196 (2009)

          For any questions about FHI-aims, please visit the aimsclub website
          with its forums and wiki. Contributions to both the forums and the
          wiki are warmly encouraged - they are for you, and everyone is welcome there.

------------------------------------------------------------



  Date     :  20191122, Time     :  145231.461
  Time zero on CPU 1             :   0.428512820000000E+02  s.
  Internal wall clock time zero  :           343666351.461  s.

  FHI-aims created a unique identifier for this run for later identification
  aims_uuid : EBC56769-2C3D-41CB-A799-356C42336CDA

  Using        4 parallel tasks.
  Task        0 on host e001 reporting.
  Task        1 on host e001 reporting.
  Task        2 on host e001 reporting.
  Task        3 on host e001 reporting.

  Performing system and environment tests:
  | Environment variable OMP_NUM_THREADS correctly set to 1.
  | Maximum stacksize for task 0: unlimited
  | Maximum stacksize for task 1: unlimited
  | Maximum stacksize for task 2: unlimited
  | Maximum stacksize for task 3: unlimited
  | Current stacksize for task 0: unlimited
  | Current stacksize for task 1: unlimited
  | Current stacksize for task 2: unlimited
  | Current stacksize for task 3: unlimited
  | Checking for scalapack...
  | Testing pdtran()...
  | All pdtran() tests passed.

  Obtaining array dimensions for all initial allocations:
  
  -----------------------------------------------------------------------
  Parsing control.in (first pass over file, find array dimensions only).
  The contents of control.in will be repeated verbatim below
  unless switched off by setting 'verbatim_writeout .false.' .
  in the first line of control.in .
  -----------------------------------------------------------------------
  
    #########################################################################################
    #
    #   input file control.in tight for scaling studies
    #
    #########################################################################################
    #
    #  Physical model
    #
      xc                 pbe
      spin               none
      relativistic       none
      override_relativity .true.
      charge             0.
    #
    #  SCF convergence
    #
      occupation_type    gaussian 0.1
      mixer              pulay
        n_max_pulay        10
        charge_mix_param   0.3
      sc_accuracy_rho    1E-4
      sc_accuracy_eev    1E-2
      sc_accuracy_etot   1E-4
      sc_accuracy_forces 1E-2
      sc_iter_limit      1000
  harmonic_length_scale 0.02
  energy_tolerance 5E-3
  
   postprocess_anyway            .true.
  #    restart restart_file
    #KS_method scalapack_old
    #KS_method serial also works
   hessian_to_restart_geometry     .false.
  
    #
    #
    #  Eigenvalue solution
      #KS_method  lapack
    #  partition_type rho_r2 ## !! use only if on BG you run into an unexpected
    #memory shortage per processor!!
  
    #
    #  accuracy / efficiency for normal scf
    #
    #  density_update_method density_matrix
    #  collect_eigenvectors .false.
    #  empty_states     3 ## This is the setting for light elements. Careful!!
    #
    #  use_local_index .true.
    ##  load_balancing .true.
    #  distributed_spline_storage .false.  ## Helps save memory but may hurt your
    #  performance. Test effect for VERY MANY CPUs.
    #
    #  For periodic boundary conditions
    #
        k_grid 3 3 3
    #    output k_eigenvalue 1
  
    #
    #  Relaxation
    #
    #  restart_relaxations .true.
     relax_geometry   bfgs 1.e-2
      vdw_correction_hirshfeld
  relax_unit_cell full
    #  output Hirshfeld-I
    #
    ################################################################################
    ################################################################################
    #
    #  FHI-aims code project
    #  VB, Fritz-Haber Institut, 2009
    #
    #  Suggested "light" defaults for H atom (to be pasted into control.in file)
    #  Be sure to double-check any results obtained with these settings for post-processing,
    #  e.g., with the "tight" defaults and larger basis sets.
    #
    ################################################################################
      species        H
    #     global species definitions
        nucleus             1
        mass                1.00794
    #
        l_hartree           4
    #
        cut_pot             3.5  1.5  1.0
        basis_dep_cutoff    1e-4
    #
        radial_base         24 5.0
        radial_multiplier   1
        angular_grids       specified
          division   0.2421   50
          division   0.3822  110
          division   0.4799  194
          division   0.5341  302
    #      division   0.5626  434
    #      division   0.5922  590
    #      division   0.6542  770
    #      division   0.6868 1202
    #      outer_grid  770
          outer_grid  302
    ################################################################################
    #
    #  Definition of "minimal" basis
    #
    ################################################################################
    #     valence basis states
        valence      1  s   1.
    #     ion occupancy
        ion_occ      1  s   0.5
    ################################################################################
    #
    #  Suggested additional basis functions. For production calculations,
    #  uncomment them one after another (the most important basis functions are
    #  listed first).
    #
    #  Basis constructed for dimers: 0.5 A, 0.7 A, 1.0 A, 1.5 A, 2.5 A
    #
    ################################################################################
    #  "First tier" - improvements: -1014.90 meV to -62.69 meV
         hydro 2 s 2.1
         hydro 2 p 3.5
    #  "Second tier" - improvements: -12.89 meV to -1.83 meV
    #     hydro 1 s 0.85
    #     hydro 2 p 3.7
    #     hydro 2 s 1.2
    #     hydro 3 d 7
    #  "Third tier" - improvements: -0.25 meV to -0.12 meV
    #     hydro 4 f 11.2
    #     hydro 3 p 4.8
    #     hydro 4 d 9
    #     hydro 3 s 3.2
    ################################################################################
    #
    #  FHI-aims code project
    #  VB, Fritz-Haber Institut, 2009
    #
    #  Suggested "light" defaults for C atom (to be pasted into control.in file)
    #  Be sure to double-check any results obtained with these settings for post-processing,
    #  e.g., with the "tight" defaults and larger basis sets.
    #
    ################################################################################
      species        C
    #     global species definitions
        nucleus             6
        mass                12.0107
    #
        l_hartree           4
    #
        cut_pot             3.5  1.5  1.0
        basis_dep_cutoff    1e-4
    #
        radial_base         34 5.0
        radial_multiplier   1
        angular_grids specified
          division   0.3326   50
          division   0.5710  110
          division   0.7727  194
          division   0.8772  302
    #      division   0.9334  434
    #      division   0.9625  590
    #      division   0.9924  770
    #      division   1.0230  974
    #      division   1.4589 1202
    #     outer_grid  974
         outer_grid 302
    ################################################################################
    #
    #  Definition of "minimal" basis
    #
    ################################################################################
    #     valence basis states
        valence      2  s   2.
        valence      2  p   2.
    #     ion occupancy
        ion_occ      2  s   1.
        ion_occ      2  p   1.
    ################################################################################
    #
    #  Suggested additional basis functions. For production calculations,
    #  uncomment them one after another (the most important basis functions are
    #  listed first).
    #
    #  Constructed for dimers: 1.0 A, 1.25 A, 1.5 A, 2.0 A, 3.0 A
    #
    ################################################################################
    #  "First tier" - improvements: -1214.57 meV to -155.61 meV
         hydro 2 p 1.7
         hydro 3 d 6
         hydro 2 s 4.9
    #  "Second tier" - improvements: -67.75 meV to -5.23 meV
    #     hydro 4 f 9.8
    #     hydro 3 p 5.2
    #     hydro 3 s 4.3
    #     hydro 5 g 14.4
    #     hydro 3 d 6.2
    #  "Third tier" - improvements: -2.43 meV to -0.60 meV
    #     hydro 2 p 5.6
    #     hydro 2 s 1.4
    #     hydro 3 d 4.9
    #     hydro 4 f 11.2
    #  "Fourth tier" - improvements: -0.39 meV to -0.18 meV
    #     hydro 2 p 2.1
    #     hydro 5 g 16.4
    #     hydro 4 d 13.2
    #     hydro 3 s 13.6
    #     hydro 4 f 17.6
    #  Further basis functions - improvements: -0.08 meV and below
    #     hydro 3 s 2
    #     hydro 3 p 6
    #     hydro 4 d 20
    ################################################################################
    #
    #  FHI-aims code project
    #  VB, Fritz-Haber Institut, 2009
    #
    #  Suggested "light" defaults for N atom (to be pasted into control.in file)
    #  Be sure to double-check any results obtained with these settings for post-processing,
    #  e.g., with the "tight" defaults and larger basis sets.
    #
    ################################################################################
      species        N
    #     global species definitions
        nucleus             7
        mass                14.0067
    #
        l_hartree           4
    #
        cut_pot             3.5  1.5  1.0
        basis_dep_cutoff    1e-4
    #
        radial_base         35 5.0
        radial_multiplier   1
        angular_grids       specified
          division   0.2599   50
          division   0.4601  110
          division   0.5885  194
          division   0.6503  302
    #      division   0.6939  434
    #      division   0.7396  590
    #      division   0.7632  770
    #      division   0.8122  974
    #      division   1.1604 1202
    #      outer_grid  974
          outer_grid  302
    ################################################################################
    #
    #  Definition of "minimal" basis
    #
    ################################################################################
    #     valence basis states
        valence      2  s   2.
        valence      2  p   3.
    #     ion occupancy
        ion_occ      2  s   1.
        ion_occ      2  p   2.
    ################################################################################
    #
    #  Suggested additional basis functions. For production calculations,
    #  uncomment them one after another (the most important basis functions are
    #  listed first).
    #
    #  Constructed for dimers: 1.0 A, 1.1 A, 1.5 A, 2.0 A, 3.0 A
    #
    ################################################################################
    #  "First tier" - improvements: -1193.42 meV to -220.60 meV
         hydro 2 p 1.8
         hydro 3 d 6.8
         hydro 3 s 5.8
    #  "Second tier" - improvements: -80.21 meV to -6.86 meV
    #     hydro 4 f 10.8
    #     hydro 3 p 5.8
    #     hydro 1 s 0.8
    #     hydro 5 g 16
    #     hydro 3 d 4.9
    #  "Third tier" - improvements: -4.29 meV to -0.53 meV
    #     hydro 3 s 16
    #     ionic 2 p auto
    #     hydro 3 d 6.6
    #     hydro 4 f 11.6
    #  "Fourth tier" - improvements: -0.75 meV to -0.25 meV
    #     hydro 2 p 4.5
    #     hydro 2 s 2.4
    #     hydro 5 g 14.4
    #     hydro 4 d 14.4
    #     hydro 4 f 16.8
    # Further basis functions - -0.21 meV and below
    #     hydro 3 p 14.8
    #     hydro 3 s 4.4
    #     hydro 3 d 19.6
    #     hydro 5 g 12.8
    ################################################################################
    #
    #  FHI-aims code project
    #  VB, Fritz-Haber Institut, 2009
    #
    #  Suggested "light" defaults for O atom (to be pasted into control.in file)
    #  Be sure to double-check any results obtained with these settings for post-processing,
    #  e.g., with the "tight" defaults and larger basis sets.
    #
    ################################################################################
      species        O
    #     global species definitions
        nucleus             8
        mass                15.9994
    #
        l_hartree           4
    #
        cut_pot             3.5  1.5  1.0
        basis_dep_cutoff    1e-4
    #
        radial_base         36 5.0
        radial_multiplier   1
         angular_grids specified
          division   0.2659   50
          division   0.4451  110
          division   0.6052  194
          division   0.7543  302
    #      division   0.8014  434
    #      division   0.8507  590
    #      division   0.8762  770
    #      division   0.9023  974
    #      division   1.2339 1202
    #      outer_grid 974
          outer_grid 302
    ################################################################################
    #
    #  Definition of "minimal" basis
    #
    ################################################################################
    #     valence basis states
        valence      2  s   2.
        valence      2  p   4.
    #     ion occupancy
        ion_occ      2  s   1.
        ion_occ      2  p   3.
    ################################################################################
    #
    #  Suggested additional basis functions. For production calculations,
    #  uncomment them one after another (the most important basis functions are
    #  listed first).
    #
    #  Constructed for dimers: 1.0 A, 1.208 A, 1.5 A, 2.0 A, 3.0 A
    #
    ################################################################################
    #  "First tier" - improvements: -699.05 meV to -159.38 meV
         hydro 2 p 1.8
         hydro 3 d 7.6
         hydro 3 s 6.4
    #  "Second tier" - improvements: -49.91 meV to -5.39 meV
    #     hydro 4 f 11.6
    #     hydro 3 p 6.2
    #     hydro 3 d 5.6
    #     hydro 5 g 17.6
    #     hydro 1 s 0.75
    #  "Third tier" - improvements: -2.83 meV to -0.50 meV
    #     ionic 2 p auto
    #     hydro 4 f 10.8
    #     hydro 4 d 4.7
    #     hydro 2 s 6.8
    #  "Fourth tier" - improvements: -0.40 meV to -0.12 meV
    #     hydro 3 p 5
    #     hydro 3 s 3.3
    #     hydro 5 g 15.6
    #     hydro 4 f 17.6
    #     hydro 4 d 14
    # Further basis functions - -0.08 meV and below
    #     hydro 3 s 2.1
    #     hydro 4 d 11.6
    #     hydro 3 p 16
    #     hydro 2 s 17.2
    ################################################################################
    #
    #  FHI-aims code project
    #  VB, Fritz-Haber Institut, 2009
    #
    #  Suggested "light" defaults for S atom (to be pasted into control.in file)
    #  Be sure to double-check any results obtained with these settings for post-processing,
    #  e.g., with the "tight" defaults and larger basis sets.
    #
    ################################################################################
      species        S
    #     global species definitions
        nucleus             16
        mass                32.065
    #
        l_hartree           4
    #
        cut_pot             3.5          1.5  1.0
        basis_dep_cutoff    1e-4
    #
        radial_base         44 5.0
        radial_multiplier   1
        angular_grids       specified
          division   0.4665  110
          division   0.5810  194
          division   0.7139  302
    #      division   0.8274  434
    #      division   0.9105  590
    #      division   1.0975  770
    #      division   1.2028  974
    #      outer_grid  974
          outer_grid  302
    ################################################################################
    #
    #  Definition of "minimal" basis
    #
    ################################################################################
    #     valence basis states
        valence      3  s   2.
        valence      3  p   4.
    #     ion occupancy
        ion_occ      3  s   1.
        ion_occ      3  p   3.
    ################################################################################
    #
    #  Suggested additional basis functions. For production calculations,
    #  uncomment them one after another (the most important basis functions are
    #  listed first).
    #
    #  Constructed for dimers: 1.6 A, 1.9 A, 2.5 A, 3.25 A, 4.0 A
    #
    ################################################################################
    #  "First tier" - improvements: -652.81 meV to -45.53 meV
         ionic 3 d auto
         hydro 2 p 1.8
    #     hydro 4 f 7
         ionic 3 s auto
    #  "Second tier" - improvements: -30.20 meV to -1.74 meV
    #     hydro 4 d 6.2
    #     hydro 5 g 10.8
    #     hydro 4 p 4.9
    #     hydro 5 f 10
    #     hydro 1 s 0.8
    #  "Third tier" - improvements: -1.04 meV to -0.20 meV
    #     hydro 3 d 3.9
    #     hydro 3 d 2.7
    #     hydro 5 g 12
    #     hydro 4 p 10.4
    #     hydro 5 f 12.4
    #     hydro 2 s 1.9
    #  "Fourth tier" - improvements: -0.35 meV to -0.06 meV
    #     hydro 4 d 10.4
    #     hydro 4 p 7.2
    #     hydro 4 d 10
    #     hydro 5 g 19.2
    #     hydro 4 s 12
  
  
  -----------------------------------------------------------------------
  Completed first pass over input file control.in .
  -----------------------------------------------------------------------
  
  
  -----------------------------------------------------------------------
  Parsing geometry.in (first pass over file, find array dimensions only).
  The contents of geometry.in will be repeated verbatim below
  unless switched off by setting 'verbatim_writeout .false.' .
  in the first line of geometry.in .
  -----------------------------------------------------------------------
  
  lattice_vector 5.636079 0.0 0.0
  lattice_vector 0.0 5.636079 0.0
  lattice_vector 0.0 0.0 8.419221
  atom 1.15894 3.60085 4.20961 C
  atom 0.57949 3.20946 5.42092 C
  atom -0.57949 2.42662 5.42092 C
  atom -1.15894 2.03522 4.20961 C
  atom -0.57949 2.42662 2.99831 C
  atom 0.57949 3.20946 2.99831 C
  atom 2.06335 4.21175 4.20961 H
  atom 1.03181 3.51498 6.36603 H
  atom -1.03181 2.12110 6.36603 H
  atom -2.06335 1.42433 4.20961 H
  atom -1.03181 2.12110 2.05319 H
  atom 1.03181 3.51498 2.05319 H
  atom 2.03522 1.15894 -0.00000 C
  atom 2.42662 0.57949 1.21131 C
  atom 3.20946 -0.57949 1.21131 C
  atom 3.60085 -1.15894 -0.00000 C
  atom 3.20946 -0.57949 -1.21131 C
  atom 2.42662 0.57949 -1.21131 C
  atom 1.42433 2.06335 -0.00000 H
  atom 2.12110 1.03181 2.15642 H
  atom 3.51498 -1.03181 2.15642 H
  atom 4.21175 -2.06335 -0.00000 H
  atom 3.51498 -1.03181 -2.15642 H
  atom 2.12110 1.03181 -2.15642 H
  
  -----------------------------------------------------------------------
  Completed first pass over input file geometry.in .
  -----------------------------------------------------------------------
  

  Basic array size parameters:
  | Number of species                 :        5
  | Number of atoms                   :       24
  | Number of lattice vectors         :        3
  | Max. basis fn. angular momentum   :        2
  | Max. atomic/ionic basis occupied n:        3
  | Max. number of basis fn. types    :        3
  | Max. radial fns per species/type  :        5
  | Max. logarithmic grid size        :     1357
  | Max. radial integration grid size :       44
  | Max. angular integration grid size:      302
  | Max. angular grid division number :        8
  | Radial grid for Hartree potential :     1357
  | Number of spin channels           :        1

------------------------------------------------------------
          Reading file control.in.
------------------------------------------------------------
  XC: Using PBE gradient-corrected functionals.
  Spin treatment: No spin polarisation.
  Non-relativistic treatment of kinetic energy.
  override_relativity: Explicitly overriding any built-in relativity checks.
  If you use this flag, you should really know what you are doing.
  Charge =   0.000000E+00: Neutral system requested explicitly.
  Occupation type: Gaussian broadening, width =   0.100000E+00 eV.
  Using pulay charge density mixing.
  Pulay mixing - number of memorized iterations:   10
  Charge density mixing - mixing parameter:     0.3000
  Convergence accuracy of self-consistent charge density:  0.1000E-03
  Convergence accuracy of sum of eigenvalues:  0.1000E-01
  Convergence accuracy of total energy:  0.1000E-03
  Convergence accuracy of forces:  0.1000E-01
  Maximum number of s.-c. iterations  :  1000
  Assuming qualitatively harmonic for steps shorter than   0.200000E-01 A.
  Max energy increase before discarding BFGS move:   0.500000E-02 eV
  Postprocessing will be performed even if SCF does not converge.
  Hessian information is explicitly not written to geometry.in.next_step for relaxation restart.
  Found k-point grid:         3         3         3
  Geometry relaxation: Modified BFGS - TRM (trust radius method) for lattice optimization.
  Convergence accuracy for geometry relaxation: Maximum force <   0.100000E-01 eV/A.
 
  Reading configuration options for species H                   .
  | Found nuclear charge :   1.0000
  | Found atomic mass :    1.00794000000000      amu
  | Found l_max for Hartree potential  :   4
  | Found cutoff potl. onset [A], width [A], scale factor :    3.50000    1.50000    1.00000
  | Threshold for basis-dependent cutoff potential is   0.100000E-03
  | Found data for basic radial integration grid :    24 points, outermost radius =    5.000 A
  | Found multiplier for basic radial grid :   1
  | Found angular grid specification: user-specified.
  | Specified grid contains     5 separate shells.
  | Check grid settings after all constraints further below.
  | Found free-atom valence shell :  1 s   1.000
  | Found free-ion valence shell :  1 s   0.500
  | Found hydrogenic basis function :  2 s   2.100
  | Found hydrogenic basis function :  2 p   3.500
  Species H                   : Missing cutoff potential type.
  Defaulting to exp(1/x)/(1-x)^2 type cutoff potential.
  Species H : No 'logarithmic' tag. Using default grid for free atom:
  | Default logarithmic grid data [bohr] : 0.1000E-03 0.1000E+03 0.1012E+01
  Species H : On-site basis accuracy parameter (for Gram-Schmidt orthonormalisation) not specified.
  Using default value basis_acc =  0.1000000E-03.
  Species H                   : Using default innermost maximum threshold i_radial=  2 for radial functions.
  Species H                   : Default cutoff onset for free atom density etc. : 0.35000000E+01 AA.
  Species H                   : Basic radial grid will be enhanced according to radial_multiplier =   1, to contain    24 grid points.
 
  Reading configuration options for species C                   .
  | Found nuclear charge :   6.0000
  | Found atomic mass :    12.0107000000000      amu
  | Found l_max for Hartree potential  :   4
  | Found cutoff potl. onset [A], width [A], scale factor :    3.50000    1.50000    1.00000
  | Threshold for basis-dependent cutoff potential is   0.100000E-03
  | Found data for basic radial integration grid :    34 points, outermost radius =    5.000 A
  | Found multiplier for basic radial grid :   1
  | Found angular grid specification: user-specified.
  | Specified grid contains     5 separate shells.
  | Check grid settings after all constraints further below.
  | Found free-atom valence shell :  2 s   2.000
  | Found free-atom valence shell :  2 p   2.000
  | Found free-ion valence shell :  2 s   1.000
  | Found free-ion valence shell :  2 p   1.000
  | Found hydrogenic basis function :  2 p   1.700
  | Found hydrogenic basis function :  3 d   6.000
  | Found hydrogenic basis function :  2 s   4.900
  Species C                   : Missing cutoff potential type.
  Defaulting to exp(1/x)/(1-x)^2 type cutoff potential.
  Species C : No 'logarithmic' tag. Using default grid for free atom:
  | Default logarithmic grid data [bohr] : 0.1000E-03 0.1000E+03 0.1012E+01
  Species C : On-site basis accuracy parameter (for Gram-Schmidt orthonormalisation) not specified.
  Using default value basis_acc =  0.1000000E-03.
  Species C                   : Using default innermost maximum threshold i_radial=  2 for radial functions.
  Species C                   : Default cutoff onset for free atom density etc. : 0.35000000E+01 AA.
  Species C                   : Basic radial grid will be enhanced according to radial_multiplier =   1, to contain    34 grid points.
 
  Reading configuration options for species N                   .
  | Found nuclear charge :   7.0000
  | Found atomic mass :    14.0067000000000      amu
  | Found l_max for Hartree potential  :   4
  | Found cutoff potl. onset [A], width [A], scale factor :    3.50000    1.50000    1.00000
  | Threshold for basis-dependent cutoff potential is   0.100000E-03
  | Found data for basic radial integration grid :    35 points, outermost radius =    5.000 A
  | Found multiplier for basic radial grid :   1
  | Found angular grid specification: user-specified.
  | Specified grid contains     5 separate shells.
  | Check grid settings after all constraints further below.
  | Found free-atom valence shell :  2 s   2.000
  | Found free-atom valence shell :  2 p   3.000
  | Found free-ion valence shell :  2 s   1.000
  | Found free-ion valence shell :  2 p   2.000
  | Found hydrogenic basis function :  2 p   1.800
  | Found hydrogenic basis function :  3 d   6.800
  | Found hydrogenic basis function :  3 s   5.800
  Species N                   : Missing cutoff potential type.
  Defaulting to exp(1/x)/(1-x)^2 type cutoff potential.
  Species N : No 'logarithmic' tag. Using default grid for free atom:
  | Default logarithmic grid data [bohr] : 0.1000E-03 0.1000E+03 0.1012E+01
  Species N : On-site basis accuracy parameter (for Gram-Schmidt orthonormalisation) not specified.
  Using default value basis_acc =  0.1000000E-03.
  Species N                   : Using default innermost maximum threshold i_radial=  2 for radial functions.
  Species N                   : Default cutoff onset for free atom density etc. : 0.35000000E+01 AA.
  Species N                   : Basic radial grid will be enhanced according to radial_multiplier =   1, to contain    35 grid points.
 
  Reading configuration options for species O                   .
  | Found nuclear charge :   8.0000
  | Found atomic mass :    15.9994000000000      amu
  | Found l_max for Hartree potential  :   4
  | Found cutoff potl. onset [A], width [A], scale factor :    3.50000    1.50000    1.00000
  | Threshold for basis-dependent cutoff potential is   0.100000E-03
  | Found data for basic radial integration grid :    36 points, outermost radius =    5.000 A
  | Found multiplier for basic radial grid :   1
  | Found angular grid specification: user-specified.
  | Specified grid contains     5 separate shells.
  | Check grid settings after all constraints further below.
  | Found free-atom valence shell :  2 s   2.000
  | Found free-atom valence shell :  2 p   4.000
  | Found free-ion valence shell :  2 s   1.000
  | Found free-ion valence shell :  2 p   3.000
  | Found hydrogenic basis function :  2 p   1.800
  | Found hydrogenic basis function :  3 d   7.600
  | Found hydrogenic basis function :  3 s   6.400
  Species O                   : Missing cutoff potential type.
  Defaulting to exp(1/x)/(1-x)^2 type cutoff potential.
  Species O : No 'logarithmic' tag. Using default grid for free atom:
  | Default logarithmic grid data [bohr] : 0.1000E-03 0.1000E+03 0.1012E+01
  Species O : On-site basis accuracy parameter (for Gram-Schmidt orthonormalisation) not specified.
  Using default value basis_acc =  0.1000000E-03.
  Species O                   : Using default innermost maximum threshold i_radial=  2 for radial functions.
  Species O                   : Default cutoff onset for free atom density etc. : 0.35000000E+01 AA.
  Species O                   : Basic radial grid will be enhanced according to radial_multiplier =   1, to contain    36 grid points.
 
  Reading configuration options for species S                   .
  | Found nuclear charge :  16.0000
  | Found atomic mass :    32.0650000000000      amu
  | Found l_max for Hartree potential  :   4
  | Found cutoff potl. onset [A], width [A], scale factor :    3.50000    1.50000    1.00000
  | Threshold for basis-dependent cutoff potential is   0.100000E-03
  | Found data for basic radial integration grid :    44 points, outermost radius =    5.000 A
  | Found multiplier for basic radial grid :   1
  | Found angular grid specification: user-specified.
  | Specified grid contains     4 separate shells.
  | Check grid settings after all constraints further below.
  | Found free-atom valence shell :  3 s   2.000
  | Found free-atom valence shell :  3 p   4.000
  | Found free-ion valence shell :  3 s   1.000
  | Found free-ion valence shell :  3 p   3.000
  | Found ionic basis function :  3 d , default cutoff radius.
  | Found hydrogenic basis function :  2 p   1.800
  | Found ionic basis function :  3 s , default cutoff radius.
  Species S                   : Missing cutoff potential type.
  Defaulting to exp(1/x)/(1-x)^2 type cutoff potential.
  Species S : No 'logarithmic' tag. Using default grid for free atom:
  | Default logarithmic grid data [bohr] : 0.1000E-03 0.1000E+03 0.1012E+01
  | Will include ionic basis functions of  2.0-fold positive S                    ion.
  Species S : On-site basis accuracy parameter (for Gram-Schmidt orthonormalisation) not specified.
  Using default value basis_acc =  0.1000000E-03.
  Species S                   : Using default innermost maximum threshold i_radial=  2 for radial functions.
  Species S                   : Default cutoff onset for free atom density etc. : 0.35000000E+01 AA.
  Species S                   : Basic radial grid will be enhanced according to radial_multiplier =   1, to contain    44 grid points.
 
  Finished reading input file 'control.in'. Consistency checks are next.
 
  MPI_IN_PLACE appears to work with this MPI implementation.
  | Keeping use_mpi_in_place .true. (see manual).
  Target number of points in a grid batch is not set. Defaulting to  100
  Method for grid partitioning is not set. Defaulting to parallel hash+maxmin partitioning.
  Batch size limit is not set. Defaulting to    200
  By default, will store active basis functions for each batch.
  If in need of memory, prune_basis_once .false. can be used to disable this option.
  communication_type for Hartree potential was not specified.
  Defaulting to calc_hartree .
  Pulay mixer: Number of initial linear mixing iterations not set.
  Defaulting to    0 iterations.
  Work space size for distributed Hartree potential not set.
  Defaulting to   0.200000E+03 MB.
  Algorithm-dependent basis array size parameters:
  | n_max_pulay                         :       10
  Presetting      1001 iterations before the initial mixing cycle
  is restarted anyway using the sc_init_iter criterion / keyword.
  Presetting a factor      1.000 between actual scf density residual
  and density convergence criterion sc_accuracy_rho below which sc_init_iter
  takes no effect.
  No maximum number of relaxation steps, defaulting to     1000
  Default initial Hessian is Lindh matrix (thres = 15.00) plus  0.200000E+01 eV/A^2 times unity.
  Maximum energy tolerance by which TRM/BFGS trajectory may increase over multiple steps:   0.300000E-02
  No trust radius initializer. Defaulting to   0.200000E+00 A.
  Unit cell relaxation: Unit cell will be relaxed fully.
  Unit cell relaxation: Analytical stress will be used.
  Analytical stress will be computed.
  Analytical stress calculation: Only the upper triangle is calculated.
                                 Final output is symmetrized.
  Analytical stress calculation: scf convergence accuracy of stress not set.
                                 Analytical stress self-consistency will not be checked explicitly.
                                 Be sure to set other criteria like sc_accuracy_rho tight enough.
  Handling of forces: Unphysical translation and rotation will be removed from forces.
  No accuracy limit for integral partition fn. given. Defaulting to  0.1000E-14.
  No threshold value for u(r) in integrations given. Defaulting to  0.1000E-05.
  No accuracy for occupation numbers given. Defaulting to  0.1000E-12.
  No threshold value for occupation numbers given. Defaulting to  0.0000E+00.
  No accuracy for fermi level given. Defaulting to  0.1000E-19.
  Maximum # of iterations to find E_F not set. Defaulting to  200.
  Preferred method for the eigenvalue solver ('KS_method') not specified in 'control.in'.
  Defaulting to serial version, LAPACK (via ELSI), since more k-points than CPUs available.
  Will not use alltoall communication since running on < 1024 CPUs.
  Threshold for basis singularities not set.
  Default threshold for basis singularities:  0.1000E-04
  partition_type (choice of integration weights) for integrals was not specified.
  | Using a version of the partition function of Stratmann and coworkers ('stratmann_sparse').
  | At each grid point, the set of atoms used to build the partition table is smoothly restricted to
  | only those atoms whose free-atom density would be non-zero at that grid point.
  Partitioning for Hartree potential was not defined. Using partition_type for integrals.
  | Adjusted default value of keyword multip_moments_threshold to:       0.10000000E-11
  | This value may affect high angular momentum components of the Hartree potential in periodic systems.
  Angular momentum expansion for Kerker preconditioner not set explicitly.
  | Using default value of   0
  No explicit requirement for turning off preconditioner.
  | By default, it will be turned off when the charge convergence reaches
  | sc_accuracy_rho  =   0.100000E-03
  | sc_accuracy_eev  =   0.100000E-01
  | sc_accuracy_etot =   0.100000E-03
  No special mixing parameter while Kerker preconditioner is on.
  Using default: charge_mix_param =     0.3000.
  No q(lm)/r^(l+1) cutoff set for long-range Hartree potential.
  | Using default value of  0.100000E-09 .
  | Verify using the multipole_threshold keyword.
  Defaulting to new monopole extrapolation.
  Density update method: automatic selection selected.
  Using density matrix based charge density update.
  Using density matrix based charge density update.
  Using packed matrix style: index .
  Geometry relaxation: A file "geometry.in.next_step" is written out by default after each step.
  | This file contains the geometry of the current relaxation step as well as
  | the current Hessian matrix needed to restart the relaxation algorithm.
  | If you do not want part or all of this information, use the keywords
  | "write_restart_geometry" or "hessian_to_restart_geometry" to switch the output off.
  Defaulting to use time-reversal symmetry for k-point grid.
  Using the following vdw_convergence_threshold for supercell sums
  over the Tkatchenko-Scheffler correction:  0.100000E-05 eV.
------------------------------------------------------------


------------------------------------------------------------
          Reading geometry description geometry.in.
------------------------------------------------------------
  Input structure read successfully.
  The structure contains       24 atoms,  and a total of         84.000 electrons.

  Input geometry:
  | Unit cell:
  |        5.63607900        0.00000000        0.00000000
  |        0.00000000        5.63607900        0.00000000
  |        0.00000000        0.00000000        8.41922100
  | Atomic structure:
  |       Atom                x [A]            y [A]            z [A]
  |    1: Species C             1.15894000        3.60085000        4.20961000
  |    2: Species C             0.57949000        3.20946000        5.42092000
  |    3: Species C            -0.57949000        2.42662000        5.42092000
  |    4: Species C            -1.15894000        2.03522000        4.20961000
  |    5: Species C            -0.57949000        2.42662000        2.99831000
  |    6: Species C             0.57949000        3.20946000        2.99831000
  |    7: Species H             2.06335000        4.21175000        4.20961000
  |    8: Species H             1.03181000        3.51498000        6.36603000
  |    9: Species H            -1.03181000        2.12110000        6.36603000
  |   10: Species H            -2.06335000        1.42433000        4.20961000
  |   11: Species H            -1.03181000        2.12110000        2.05319000
  |   12: Species H             1.03181000        3.51498000        2.05319000
  |   13: Species C             2.03522000        1.15894000        0.00000000
  |   14: Species C             2.42662000        0.57949000        1.21131000
  |   15: Species C             3.20946000       -0.57949000        1.21131000
  |   16: Species C             3.60085000       -1.15894000        0.00000000
  |   17: Species C             3.20946000       -0.57949000       -1.21131000
  |   18: Species C             2.42662000        0.57949000       -1.21131000
  |   19: Species H             1.42433000        2.06335000        0.00000000
  |   20: Species H             2.12110000        1.03181000        2.15642000
  |   21: Species H             3.51498000       -1.03181000        2.15642000
  |   22: Species H             4.21175000       -2.06335000        0.00000000
  |   23: Species H             3.51498000       -1.03181000       -2.15642000
  |   24: Species H             2.12110000        1.03181000       -2.15642000

  Lattice parameters for 3D lattice (in Angstroms) :     5.636079    5.636079    8.419221
  Angle(s) between unit vectors (in degrees)       :    90.000000   90.000000   90.000000

  |

  | The smallest distance between any two atoms is         1.09139546 AA.
  |
  | The first atom of this pair is atom number                      4 .
  | The second atom of this pair is atom number                    10 .
  | Wigner-Seitz cell of the first atom image           0     0     0 .
  | (The Wigner-Seitz cell of the second atom is 0 0 0  by definition.)

  Symmetry information by spglib:
  | Precision set to  0.1E-04
  | Number of Operations  : 1
  | Space group           : 1
  | International         : P1   U
  | Schoenflies           : C1^1

  Quantities derived from the lattice vectors:
  | Reciprocal lattice vector 1:  1.114815  0.000000  0.000000
  | Reciprocal lattice vector 2:  0.000000  1.114815  0.000000
  | Reciprocal lattice vector 3:  0.000000  0.000000  0.746291
  | Unit cell volume                               :   0.267440E+03  A^3

  Range separation radius for Ewald summation (hartree_convergence_parameter):      3.10939737 bohr.

  Fractional coordinates:
                         L1                L2                L3
       atom_frac         0.20562877        0.63889275        0.49999994  C
       atom_frac         0.10281793        0.56944908        0.64387430  C
       atom_frac        -0.10281793        0.43055110        0.64387430  C
       atom_frac        -0.20562877        0.36110566        0.49999994  C
       atom_frac        -0.10281793        0.43055110        0.35612677  C
       atom_frac         0.10281793        0.56944908        0.35612677  C
       atom_frac         0.36609671        0.74728371        0.49999994  H
       atom_frac         0.18307231        0.62365698        0.75613053  H
       atom_frac        -0.18307231        0.37634320        0.75613053  H
       atom_frac        -0.36609671        0.25271647        0.49999994  H
       atom_frac        -0.18307231        0.37634320        0.24386936  H
       atom_frac         0.18307231        0.62365698        0.24386936  H
       atom_frac         0.36110566        0.20562877        0.00000000  C
       atom_frac         0.43055110        0.10281793        0.14387436  C
       atom_frac         0.56944908       -0.10281793        0.14387436  C
       atom_frac         0.63889275       -0.20562877        0.00000000  C
       atom_frac         0.56944908       -0.10281793       -0.14387436  C
       atom_frac         0.43055110        0.10281793       -0.14387436  C
       atom_frac         0.25271647        0.36609671        0.00000000  H
       atom_frac         0.37634320        0.18307231        0.25613059  H
       atom_frac         0.62365698       -0.18307231        0.25613059  H
       atom_frac         0.74728371       -0.36609671        0.00000000  H
       atom_frac         0.62365698       -0.18307231       -0.25613059  H
       atom_frac         0.37634320        0.18307231       -0.25613059  H

  Number of empty states per atom not set in control.in - providing a guess from actual geometry.
  | Total number of empty states used during s.c.f. cycle:       54
  If you use a very high smearing, use empty_states (per atom!) in control.in to increase this value.

  Structure-dependent array size parameters: 
  | Maximum number of distinct radial functions  :       29
  | Maximum number of basis functions            :      228
  | Number of Kohn-Sham states (occupied + empty):       96
------------------------------------------------------------

------------------------------------------------------------
          Preparing all fixed parts of the calculation.
------------------------------------------------------------
  Determining machine precision:
    2.225073858507201E-308
  Setting up grids for atomic and cluster calculations.

  Creating wave function, potential, and density for free atoms.

  Species: H

  List of occupied orbitals and eigenvalues:
    n    l              occ      energy [Ha]    energy [eV]
    1    0           1.0000        -0.237589        -6.4651


  Species: C

  List of occupied orbitals and eigenvalues:
    n    l              occ      energy [Ha]    energy [eV]
    1    0           2.0000       -10.038835      -273.1706
    2    0           2.0000        -0.502696       -13.6791
    2    1           2.0000        -0.191971        -5.2238


  Species: N

  List of occupied orbitals and eigenvalues:
    n    l              occ      energy [Ha]    energy [eV]
    1    0           2.0000       -14.128000      -384.4424
    2    0           2.0000        -0.681077       -18.5330
    2    1           3.0000        -0.259788        -7.0692


  Species: O

  List of occupied orbitals and eigenvalues:
    n    l              occ      energy [Ha]    energy [eV]
    1    0           2.0000       -18.898188      -514.2459
    2    0           2.0000        -0.878505       -23.9053
    2    1           4.0000        -0.331779        -9.0282


  Species: S

  List of occupied orbitals and eigenvalues:
    n    l              occ      energy [Ha]    energy [eV]
    1    0           2.0000       -88.105825     -2397.4815
    2    0           2.0000        -7.730144      -210.3479
    3    0           2.0000        -0.627748       -17.0819
    2    1           6.0000        -5.747971      -156.4103
    3    1           4.0000        -0.255786        -6.9603

  Creating fixed part of basis set: Ionic, confined, hydrogenic.
 
  H                    hydrogenic:
 
  List of hydrogenic basis orbitals: 
    n    l      effective z      eigenvalue [eV]  inner max. [A]     outer max. [A]     outer radius [A]   
    2    0         2.100000       -14.9728           0.193243           1.317208           4.583499
    2    1         3.500000       -41.6669           0.602369           0.602369           3.723403
 
 
  C                    hydrogenic:
 
  List of hydrogenic basis orbitals: 
    n    l      effective z      eigenvalue [eV]  inner max. [A]     outer max. [A]     outer radius [A]   
    2    1         1.700000        -9.7616           1.230570           1.230570           4.607917
    3    2         6.000000       -54.4224           0.792453           0.792453           3.883070
    2    0         4.900000       -81.6679           0.082559           0.562749           3.078220
 
 
  N                    hydrogenic:
 
  List of hydrogenic basis orbitals: 
    n    l      effective z      eigenvalue [eV]  inner max. [A]     outer max. [A]     outer radius [A]   
    2    1         1.800000       -10.9749           1.177451           1.177451           4.573712
    3    2         6.800000       -69.9026           0.704619           0.704619           3.538137
    3    0         5.800000       -50.8545           0.067388           1.191934           4.250239
 
 
  O                    hydrogenic:
 
  List of hydrogenic basis orbitals: 
    n    l      effective z      eigenvalue [eV]  inner max. [A]     outer max. [A]     outer radius [A]   
    2    1         1.800000       -10.9749           1.164242           1.164242           4.578029
    3    2         7.600000       -87.3180           0.624125           0.624125           3.251020
    3    0         6.400000       -61.9207           0.061167           1.081902           4.001998
 
 
  S                    ion:

  List of free ionic orbitals and eigenvalues:
    n    l      energy [Ha]    energy [eV]
    1    0       -89.127201     -2425.2745
    2    0        -8.724378      -237.4024
    3    0        -1.464668       -39.8556
    2    1        -6.744348      -183.5230
    3    1        -1.048520       -28.5317


  List of ionic basis orbitals and eigenvalues:
    n    l      energy [Ha]    energy [eV]    outer radius [A]
    3    2        -0.496135       -13.5005       4.539062
    3    0        -1.464653       -39.8552       3.642502

 
  S                    hydrogenic:
 
  List of hydrogenic basis orbitals: 
    n    l      effective z      eigenvalue [eV]  inner max. [A]     outer max. [A]     outer radius [A]   
    2    1         1.800000       -10.9749           1.168531           1.168531           4.594893
 

  Adding cutoff potential to free-atom effective potential.
  Creating atomic-like basis functions for current effective potential.

  Species H                   :

  List of atomic basis orbitals and eigenvalues:
    n    l      energy [Ha]    energy [eV]    outer radius [A]
    1    0        -0.237589        -6.4651       4.527807


  Species C                   :

  List of atomic basis orbitals and eigenvalues:
    n    l      energy [Ha]    energy [eV]    outer radius [A]
    1    0       -10.038835      -273.1706       1.934409
    2    0        -0.502696       -13.6791       4.496620
    2    1        -0.191971        -5.2238       4.551928


  Species N                   :

  List of atomic basis orbitals and eigenvalues:
    n    l      energy [Ha]    energy [eV]    outer radius [A]
    1    0       -14.128000      -384.4424       1.637919
    2    0        -0.681077       -18.5330       4.463241
    2    1        -0.259788        -7.0692       4.518138


  Species O                   :

  List of atomic basis orbitals and eigenvalues:
    n    l      energy [Ha]    energy [eV]    outer radius [A]
    1    0       -18.898188      -514.2459       1.415765
    2    0        -0.878505       -23.9053       4.413171
    2    1        -0.331779        -9.0282       4.522403


  Species S                   :

  List of atomic basis orbitals and eigenvalues:
    n    l      energy [Ha]    energy [eV]    outer radius [A]
    1    0       -88.105825     -2397.4815       0.682391
    2    0        -7.730144      -210.3479       2.317169
    3    0        -0.627748       -17.0819       4.483910
    2    1        -5.747971      -156.4103       2.555240
    3    1        -0.255786        -6.9603       4.539062

  Assembling full basis from fixed parts.
  | Species H :   atomic orbital   1 s accepted.
  | Species H :    hydro orbital   2 s accepted.
  | Species H :    hydro orbital   2 p accepted.
  | Species C :   atomic orbital   1 s accepted.
  | Species C :    hydro orbital   2 s accepted.
  | Species C :   atomic orbital   2 s accepted.
  | Species C :   atomic orbital   2 p accepted.
  | Species C :    hydro orbital   2 p accepted.
  | Species C :    hydro orbital   3 d accepted.
  | Species N :   atomic orbital   1 s accepted.
  | Species N :    hydro orbital   3 s accepted.
  | Species N :   atomic orbital   2 s accepted.
  | Species N :   atomic orbital   2 p accepted.
  | Species N :    hydro orbital   2 p accepted.
  | Species N :    hydro orbital   3 d accepted.
  | Species O :   atomic orbital   1 s accepted.
  | Species O :    hydro orbital   3 s accepted.
  | Species O :   atomic orbital   2 s accepted.
  | Species O :   atomic orbital   2 p accepted.
  | Species O :    hydro orbital   2 p accepted.
  | Species O :    hydro orbital   3 d accepted.
  | Species S :   atomic orbital   1 s accepted.
  | Species S :   atomic orbital   2 s accepted.
  | Species S :    ionic orbital   3 s accepted.
  | Species S :   atomic orbital   3 s accepted.
  | Species S :   atomic orbital   2 p accepted.
  | Species S :   atomic orbital   3 p accepted.
  | Species S :    hydro orbital   2 p accepted.
  | Species S :    ionic orbital   3 d accepted.
 
  Basis size parameters after reduction:
  | Total number of radial functions:       29
  | Total number of basis functions :      228
 
  Per-task memory consumption for arrays in subroutine allocate_ext:
  |           7.565172MB.
  Testing on-site integration grid accuracy.
  |  Species  Function  <phi|h_atom|phi> (log., in eV)  <phi|h_atom|phi> (rad., in eV)
           1        1                 -6.4663192853                 -6.4651273558
           1        2                 13.7111246313                 13.7170609718
           1        3                 25.2673269279                 25.2674696378
           2        4               -273.1705927641               -273.1705631568
           2        5                -10.7109323383                -10.7107120029
           2        6                 17.4381822266                 17.4352413244
           2        7                 -5.2255326521                 -5.2270484734
           2        8                  8.6835629259                  8.6603288385
           2        9                 27.4952418996                 27.4953360207
           3       10               -384.4424306495               -384.4423701208
           3       11                 12.5842251816                 12.5842222903
           3       12                -15.7264628251                -15.7264433455
           3       13                 -7.0696854293                 -7.0701769954
           3       14                  8.8090390882                  8.7901077751
           3       15                 35.9586762123                 35.9588528632
           4       16               -514.2458688638               -514.2457643834
           4       17                 15.1795651126                 15.1795290741
           4       18                -21.5359799773                -21.5360846186
           4       19                 -9.0283069236                 -9.0284644067
           4       20                  8.3027758564                  8.2834874195
           4       21                 45.8339351984                 45.8338762259
           5       22              -2397.4814915323              -2397.4804563634
           5       23               -210.3479335736               -210.3479265952
           5       24                -16.8079362322                -16.8079092816
           5       25                  7.5772439785                  7.5675998324
           5       26               -156.4102581151               -156.4102580951
           5       27                 -6.9617737483                 -6.9640288036
           5       28                  7.5696988470                  7.5151244831 ***
           5       29                  6.0973034823                  6.0928113248
 * Note: Onsite integrals marked "***" above are less accurate than
 * onsite_accuracy_threshold =    0.03000 eV. Usually, this is harmless.
 * When in doubt, tighten the "radial" and/or "radial_multiplier" flags to check.

  Preparing densities etc. for the partition functions (integrals / Hartree potential).

  Preparations completed.
  max(cpu_time)          :      0.375 s.
  Wall clock time (cpu1) :      0.656 s.
------------------------------------------------------------

------------------------------------------------------------
          Begin self-consistency loop: Initialization.

          Date     :  20191122, Time     :  145232.572
------------------------------------------------------------

  Initializing index lists of integration centers etc. from given atomic structure:
  Mapping all atomic coordinates to central unit cell.

  Initializing the k-points
          Using symmetry for reducing the k-points
  | k-points reduced from:       27 to       14
  | Number of k-points                             :        14
  The eigenvectors in the calculations are COMPLEX.
  | K-points in task   0:         3
  | K-points in task   1:         4
  | K-points in task   2:         4
  | K-points in task   3:         3
  | Number of basis functions in the Hamiltonian integrals :      2392
  | Number of basis functions in a single unit cell        :       228
  | Number of centers in hartree potential         :      1610
  | Number of centers in hartree multipole         :      1048
  | Number of centers in electron density summation:       776
  | Number of centers in basis integrals           :       814
  | Number of centers in integrals                 :       328
  | Number of centers in hamiltonian               :       786
  | Consuming         14 KiB for k_phase.
  | Number of super-cells (origin) [n_cells]                     :         343
  | Number of super-cells (after PM_index) [n_cells]             :          64
  | Number of super-cells in hamiltonian [n_cells_in_hamiltonian]:          64
  | Size of matrix packed + index [n_hamiltonian_matrix_size] :      251141

  Initializing relaxation algorithms.
  Finished initialization of distributed Hessian storage.
  | Global dimension:        81
  | BLACS block size:        21
  | Number of workers:        4

  | Estimated reciprocal-space cutoff momentum G_max:         3.03439304 bohr^-1 .
  | Reciprocal lattice points for long-range Hartree potential:     854
  Partitioning the integration grid into batches with parallel hashing+maxmin method.
  | Number of batches:     1859
  | Maximal batch size:     125
  | Minimal batch size:      59
  | Average batch size:      67.753
  | Standard deviation of batch sizes:      18.559

  Integration load balanced across     4 MPI tasks.
  Work distribution over tasks is as follows:
  Task     0 has      31508 integration points.
  Task     1 has      31444 integration points.
  Task     2 has      31501 integration points.
  Task     3 has      31499 integration points.
  Initializing partition tables, free-atom densities, potentials, etc. across the integration grid (initialize_grid_storage).
  | initialize_grid_storage: Actual outermost partition radius vs. multipole_radius_free
  | (-- VB: in principle, multipole_radius_free should be larger, hence this output)
  | Species        1: Confinement radius =              4.999999999999999 AA, multipole_radius_free =              5.054417573612229 AA.
  | Species        1: outer_partition_radius set to              5.054417573612229 AA .
  | Species        2: Confinement radius =              4.999999999999999 AA, multipole_radius_free =              5.019602836301480 AA.
  | Species        2: outer_partition_radius set to              5.019602836301480 AA .
  | Species        3: Confinement radius =              4.999999999999999 AA, multipole_radius_free =              5.043624274424571 AA.
  | Species        3: outer_partition_radius set to              5.043624274424571 AA .
  | Species        4: Confinement radius =              4.999999999999999 AA, multipole_radius_free =              5.048384829883283 AA.
  | Species        4: outer_partition_radius set to              5.048384829883283 AA .
  | Species        5: Confinement radius =              4.999999999999999 AA, multipole_radius_free =              5.005414751018925 AA.
  | Species        5: outer_partition_radius set to              5.005414751018925 AA .
  | The sparse table of interatomic distances needs       2157.00 kbyte instead of      5300.77 kbyte of memory.
  | Net number of integration points:   125952
  | of which are non-zero points    :   101356
  | Numerical average free-atom electrostatic potential    :     -6.83617534 eV
  Renormalizing the initial density to the exact electron count on the 3D integration grid.
  | Initial density: Formal number of electrons (from input files) :      84.0000000000
  | Integrated number of electrons on 3D grid     :      83.9979677260
  | Charge integration error                      :      -0.0020322740
  | Normalization factor for density and gradient :       1.0000241943
  Obtaining max. number of non-zero basis functions in each batch (get_n_compute_maxes).
  | Maximal number of non-zero basis functions:      425 in task     0
  | Maximal number of non-zero basis functions:      427 in task     1
  | Maximal number of non-zero basis functions:      433 in task     2
  | Maximal number of non-zero basis functions:      442 in task     3
  Allocating        1.002 MB for KS_eigenvector_complex
  Integrating Hamiltonian matrix: batch-based integration.
  Time summed over all CPUs for integration: real work        4.004 s, elapsed        4.060 s
  Integrating overlap matrix.
  Time summed over all CPUs for integration: real work        2.446 s, elapsed        2.629 s
  Decreasing sparse matrix size:
   Tolerance:  9.999999824516700E-014
   Hamiltonian matrix
  | Array has   223238 nonzero elements out of   251141 elements
  | Sparsity factor is 0.111
   Overlap matrix
  | Array has   208212 nonzero elements out of   251141 elements
  | Sparsity factor is 0.171
  New size of hamiltonian matrix:      223283

  Updating Kohn-Sham eigenvalues and eigenvectors using ELSI and the ELPA eigensolver.
  Singularity check in k-point 4, task 0 (analysis for other k-points/tasks may follow below):
  Overlap matrix is not singular
  | Lowest and highest eigenvalues :  0.8789E-03,  0.7170E+01
  Finished singularity check of overlap matrix
  | Time :     0.020 s
  Finished Cholesky decomposition
  | Time :     0.003 s
  Finished transformation to standard eigenproblem
  | Time :     0.005 s
  Starting LAPACK eigensolver
  Finished solving standard eigenproblem
  | Time :     0.013 s
  Finished back-transformation of eigenvectors
  | Time :     0.000 s

  Obtaining occupation numbers and chemical potential using ELSI.
  | Chemical potential (Fermi level):    -6.51332933 eV
  Writing Kohn-Sham eigenvalues.
  K-point:       1 at    0.000000    0.000000    0.000000 (in units of recip. lattice)

  State    Occupation    Eigenvalue [Ha]    Eigenvalue [eV]
      1       2.00000         -10.154700         -276.32345
      2       2.00000         -10.154699         -276.32343
      3       2.00000         -10.154527         -276.31874
      4       2.00000         -10.154527         -276.31874
      5       2.00000         -10.154482         -276.31751
      6       2.00000         -10.154481         -276.31749
      7       2.00000         -10.154138         -276.30815
      8       2.00000         -10.154138         -276.30815
      9       2.00000         -10.154089         -276.30682
     10       2.00000         -10.154088         -276.30680
     11       2.00000         -10.153918         -276.30217
     12       2.00000         -10.153918         -276.30215
     13       2.00000          -0.981105          -26.69724
     14       2.00000          -0.978605          -26.62919
     15       2.00000          -0.877165          -23.86888
     16       2.00000          -0.873014          -23.75592
     17       2.00000          -0.873012          -23.75585
     18       2.00000          -0.871268          -23.70840
     19       2.00000          -0.739044          -20.11040
     20       2.00000          -0.735853          -20.02358
     21       2.00000          -0.735852          -20.02356
     22       2.00000          -0.735002          -20.00043
     23       2.00000          -0.659764          -17.95310
     24       2.00000          -0.639716          -17.40755
     25       2.00000          -0.614720          -16.72739
     26       2.00000          -0.611777          -16.64729
     27       2.00000          -0.578017          -15.72866
     28       2.00000          -0.578016          -15.72861
     29       2.00000          -0.565099          -15.37712
     30       2.00000          -0.555815          -15.12450
     31       2.00000          -0.555814          -15.12446
     32       2.00000          -0.551075          -14.99553
     33       2.00000          -0.494553          -13.45748
     34       2.00000          -0.490398          -13.34442
     35       2.00000          -0.490398          -13.34440
     36       2.00000          -0.489394          -13.31708
     37       2.00000          -0.489392          -13.31704
     38       2.00000          -0.488323          -13.28793
     39       2.00000          -0.402407          -10.95006
     40       2.00000          -0.397225          -10.80905
     41       2.00000          -0.393885          -10.71815
     42       2.00000          -0.393885          -10.71815
     43       0.00000          -0.219626           -5.97633
     44       0.00000          -0.200145           -5.44623
     45       0.00000          -0.200145           -5.44622
     46       0.00000          -0.199515           -5.42907
     47       0.00000          -0.125347           -3.41087
     48       0.00000          -0.072410           -1.97037
     49       0.00000          -0.068923           -1.87550
     50       0.00000          -0.063191           -1.71951
     51       0.00000          -0.023871           -0.64957
     52       0.00000           0.005407            0.14713
     53       0.00000           0.005408            0.14715
     54       0.00000           0.007005            0.19061
     55       0.00000           0.027836            0.75747
     56       0.00000           0.041555            1.13077
     57       0.00000           0.041555            1.13077
     58       0.00000           0.073359            1.99620
     59       0.00000           0.092756            2.52401
     60       0.00000           0.092756            2.52402
     61       0.00000           0.092963            2.52966
     62       0.00000           0.093140            2.53447
     63       0.00000           0.111446            3.03261
     64       0.00000           0.123250            3.35382
     65       0.00000           0.137222            3.73401
     66       0.00000           0.137224            3.73405
     67       0.00000           0.143784            3.91257
     68       0.00000           0.145110            3.94864
     69       0.00000           0.145111            3.94868
     70       0.00000           0.179482            4.88397
     71       0.00000           0.209291            5.69509
     72       0.00000           0.218003            5.93216
     73       0.00000           0.223455            6.08051
     74       0.00000           0.244926            6.66476
     75       0.00000           0.286105            7.78532
     76       0.00000           0.290092            7.89381
     77       0.00000           0.298723            8.12867
     78       0.00000           0.298725            8.12872
     79       0.00000           0.302643            8.23534
     80       0.00000           0.312565            8.50533
     81       0.00000           0.312566            8.50535
     82       0.00000           0.343118            9.33673
     83       0.00000           0.343121            9.33680
     84       0.00000           0.344322            9.36947
     85       0.00000           0.344323            9.36950
     86       0.00000           0.412717           11.23059
     87       0.00000           0.415153           11.29690
     88       0.00000           0.415154           11.29693
     89       0.00000           0.454987           12.38081
     90       0.00000           0.488458           13.29162
     91       0.00000           0.497412           13.53528
     92       0.00000           0.497413           13.53530
     93       0.00000           0.515657           14.03173
     94       0.00000           0.515657           14.03175
     95       0.00000           0.587463           15.98569
     96       0.00000           0.598136           16.27612

  What follows are estimated values for band gap, HOMO, LUMO, etc.
  | They are estimated on a discrete k-point grid and not necessarily exact.
  | For converged numbers, create a DOS and/or band structure plot on a denser k-grid.

  Highest occupied state (VBM) at    -10.64353947 eV (relative to internal zero)
  | Occupation number:      2.00000000
  | K-point:      13 at    0.666667    0.333333    0.000000 (in units of recip. lattice)

  Lowest unoccupied state (CBM) at    -5.97633117 eV (relative to internal zero)
  | Occupation number:      0.00000000
  | K-point:       1 at    0.000000    0.000000    0.000000 (in units of recip. lattice)

  ESTIMATED overall HOMO-LUMO gap:      4.66720830 eV between HOMO at k-point 13 and LUMO at k-point 1
  | This appears to be an indirect band gap.
  | Smallest direct gap :      4.74181564 eV for k_point 1 at    0.000000    0.000000    0.000000 (in units of recip. lattice)
  The gap value is above 0.2 eV. Unless you are using a very sparse k-point grid,
  this system is most likely an insulator or a semiconductor.
  Calculating total energy contributions from superposition of free atom densities.

  Total energy components:
  | Sum of eigenvalues            :        -281.37630743 Ha       -7656.63889059 eV
  | XC energy correction          :         -67.48882654 Ha       -1836.46440848 eV
  | XC potential correction       :          86.69599485 Ha        2359.11805059 eV
  | Free-atom electrostatic energy:        -202.36800846 Ha       -5506.71368872 eV
  | Hartree energy correction     :           0.00000000 Ha           0.00000000 eV
  | vdW energy correction         :           0.00000000 Ha           0.00000000 eV
  | Entropy correction            :          -0.00000000 Ha          -0.00000000 eV
  | ---------------------------
  | Total energy                  :        -464.53714758 Ha      -12640.69893720 eV
  | Total energy, T -> 0          :        -464.53714758 Ha      -12640.69893720 eV  <-- do not rely on this value for anything but (periodic) metals
  | Electronic free energy        :        -464.53714758 Ha      -12640.69893720 eV

  Derived energy quantities:
  | Kinetic energy                :         458.62694380 Ha       12479.87410971 eV
  | Electrostatic energy          :        -855.67526483 Ha      -23284.10863843 eV
  | Energy correction for multipole
  | error in Hartree potential    :           0.00000000 Ha           0.00000000 eV
  | Sum of eigenvalues per atom                           :        -319.02662044 eV
  | Total energy (T->0) per atom                          :        -526.69578905 eV  <-- do not rely on this value for anything but (periodic) metals
  | Electronic free energy per atom                       :        -526.69578905 eV
  Initialize hartree_potential_storage
  Max. number of atoms included in rho_multipole:           24

  End scf initialization - timings             :  max(cpu_time)    wall_clock(cpu1)
  | Time for scf. initialization               :        5.654 s           7.082 s
  | Boundary condition initialization          :        0.213 s           0.408 s
  | Relaxation initialization                  :        0.010 s           0.014 s
  | Integration                                :        1.679 s           1.685 s
  | Solution of K.-S. eqns.                    :        0.140 s           1.113 s
  | Grid partitioning                          :        0.288 s           0.316 s
  | Preloading free-atom quantities on grid    :        0.014 s           0.027 s
  | Free-atom superposition energy             :        0.431 s           0.431 s
  | Total energy evaluation                    :        0.001 s           0.003 s

  Partial memory accounting:
  | Current value for overall tracked memory usage:
  |   Minimum:        5.298 MB (on task 3)
  |   Maximum:        5.634 MB (on task 1)
  |   Average:        5.467 MB
  | Peak value for overall tracked memory usage:
  |   Minimum:        8.479 MB (on task 0 after allocating eval_tmp)
  |   Maximum:        8.845 MB (on task 2 after allocating wave)
  |   Average:        8.683 MB
  | Largest tracked array allocation so far:
  |   Minimum:        1.916 MB (overlap_matrix on task 0)
  |   Maximum:        1.916 MB (overlap_matrix on task 0)
  |   Average:        1.916 MB
  Note:  These values currently only include a subset of arrays which are explicitly tracked.
  The "true" memory usage will be greater.
------------------------------------------------------------

------------------------------------------------------------
          Begin self-consistency iteration #    1

  Date     :  20191122, Time     :  145239.717
------------------------------------------------------------
  Evaluating new KS density using the density matrix
  Evaluating density matrix
  Time summed over all CPUs for getting density from density matrix: real work        6.109 s, elapsed        6.185 s
  Integration grid: deviation in total charge (<rho> - N_e) =   1.421085E-14
  Pulay mixing of updated and previous charge densities.

  Evaluating partitioned Hartree potential by multipole expansion.
  | Analytical far-field extrapolation by fixed multipoles:
  | Hartree multipole sum: apparent total charge =   0.102325E-02
  Summing up the Hartree potential.
  Time summed over all CPUs for potential: real work        7.825 s, elapsed        7.963 s
  | RMS charge density error from multipole expansion :   0.138699E-01
  | Average real-space part of the electrostatic potential :      0.23825609 eV

  Integrating Hamiltonian matrix: batch-based integration.
  Time summed over all CPUs for integration: real work        3.949 s, elapsed        4.029 s

  Updating Kohn-Sham eigenvalues and eigenvectors using ELSI and the ELPA eigensolver.
  Singularity check in k-point 4, task 0:
  Finished Cholesky decomposition
  | Time :     0.002 s
  Finished transformation to standard eigenproblem
  | Time :     0.002 s
  Starting LAPACK eigensolver
  Finished solving standard eigenproblem
  | Time :     0.007 s
  Finished back-transformation of eigenvectors
  | Time :     0.000 s

  Obtaining occupation numbers and chemical potential using ELSI.
  | Chemical potential (Fermi level):    -5.58606079 eV
  Writing Kohn-Sham eigenvalues.
  K-point:       1 at    0.000000    0.000000    0.000000 (in units of recip. lattice)

  State    Occupation    Eigenvalue [Ha]    Eigenvalue [eV]
      1       2.00000         -10.057756         -273.68546
      2       2.00000         -10.057755         -273.68545
      3       2.00000         -10.057605         -273.68136
      4       2.00000         -10.057605         -273.68136
      5       2.00000         -10.057505         -273.67864
      6       2.00000         -10.057505         -273.67864
      7       2.00000         -10.057199         -273.67030
      8       2.00000         -10.057199         -273.67030
      9       2.00000         -10.057113         -273.66797
     10       2.00000         -10.057113         -273.66797
     11       2.00000         -10.056957         -273.66373
     12       2.00000         -10.056957         -273.66373
     13       2.00000          -0.922722          -25.10855
     14       2.00000          -0.919295          -25.01529
     15       2.00000          -0.822655          -22.38559
     16       2.00000          -0.817305          -22.24000
     17       2.00000          -0.817303          -22.23995
     18       2.00000          -0.814843          -22.17300
     19       2.00000          -0.689065          -18.75041
     20       2.00000          -0.684345          -18.62197
     21       2.00000          -0.684345          -18.62197
     22       2.00000          -0.683533          -18.59987
     23       2.00000          -0.619701          -16.86293
     24       2.00000          -0.596479          -16.23103
     25       2.00000          -0.552857          -15.04401
     26       2.00000          -0.549106          -14.94194
     27       2.00000          -0.543585          -14.79170
     28       2.00000          -0.543583          -14.79165
     29       2.00000          -0.520193          -14.15516
     30       2.00000          -0.511279          -13.91261
     31       2.00000          -0.511278          -13.91258
     32       2.00000          -0.505450          -13.75399
     33       2.00000          -0.449651          -12.23564
     34       2.00000          -0.446015          -12.13669
     35       2.00000          -0.446014          -12.13666
     36       2.00000          -0.444185          -12.08690
     37       2.00000          -0.444185          -12.08688
     38       2.00000          -0.442074          -12.02945
     39       2.00000          -0.361731           -9.84320
     40       2.00000          -0.354899           -9.65729
     41       2.00000          -0.350384           -9.53444
     42       2.00000          -0.350384           -9.53443
     43       0.00000          -0.182194           -4.95775
     44       0.00000          -0.156892           -4.26924
     45       0.00000          -0.156891           -4.26922
     46       0.00000          -0.155444           -4.22984
     47       0.00000          -0.113846           -3.09789
     48       0.00000          -0.055939           -1.52218
     49       0.00000          -0.031092           -0.84606
     50       0.00000          -0.023547           -0.64074
     51       0.00000          -0.007322           -0.19925
     52       0.00000           0.024202            0.65857
     53       0.00000           0.024203            0.65860
     54       0.00000           0.028093            0.76446
     55       0.00000           0.052625            1.43199
     56       0.00000           0.072065            1.96099
     57       0.00000           0.072065            1.96100
     58       0.00000           0.105009            2.85743
     59       0.00000           0.122523            3.33401
     60       0.00000           0.122523            3.33402
     61       0.00000           0.129950            3.53612
     62       0.00000           0.130643            3.55496
     63       0.00000           0.132119            3.59515
     64       0.00000           0.144089            3.92086
     65       0.00000           0.170863            4.64941
     66       0.00000           0.170864            4.64946
     67       0.00000           0.174715            4.75424
     68       0.00000           0.180410            4.90921
     69       0.00000           0.180411            4.90924
     70       0.00000           0.226438            6.16168
     71       0.00000           0.233587            6.35624
     72       0.00000           0.244625            6.65658
     73       0.00000           0.245598            6.68306
     74       0.00000           0.284947            7.75379
     75       0.00000           0.316722            8.61844
     76       0.00000           0.319175            8.68519
     77       0.00000           0.326287            8.87871
     78       0.00000           0.334192            9.09383
     79       0.00000           0.334194            9.09387
     80       0.00000           0.344641            9.37815
     81       0.00000           0.344641            9.37815
     82       0.00000           0.377476           10.27164
     83       0.00000           0.377477           10.27166
     84       0.00000           0.396982           10.80244
     85       0.00000           0.396986           10.80253
     86       0.00000           0.434944           11.83544
     87       0.00000           0.461653           12.56221
     88       0.00000           0.461655           12.56226
     89       0.00000           0.482281           13.12354
     90       0.00000           0.520917           14.17487
     91       0.00000           0.527018           14.34089
     92       0.00000           0.527019           14.34091
     93       0.00000           0.544485           14.81618
     94       0.00000           0.544485           14.81620
     95       0.00000           0.619308           16.85224
     96       0.00000           0.626051           17.03570

  What follows are estimated values for band gap, HOMO, LUMO, etc.
  | They are estimated on a discrete k-point grid and not necessarily exact.
  | For converged numbers, create a DOS and/or band structure plot on a denser k-grid.

  Highest occupied state (VBM) at     -9.45109426 eV (relative to internal zero)
  | Occupation number:      2.00000000
  | K-point:      13 at    0.666667    0.333333    0.000000 (in units of recip. lattice)

  Lowest unoccupied state (CBM) at    -4.95775315 eV (relative to internal zero)
  | Occupation number:      0.00000000
  | K-point:       1 at    0.000000    0.000000    0.000000 (in units of recip. lattice)

  ESTIMATED overall HOMO-LUMO gap:      4.49334111 eV between HOMO at k-point 13 and LUMO at k-point 1
  | This appears to be an indirect band gap.
  | Smallest direct gap :      4.57667692 eV for k_point 1 at    0.000000    0.000000    0.000000 (in units of recip. lattice)
  The gap value is above 0.2 eV. Unless you are using a very sparse k-point grid,
  this system is most likely an insulator or a semiconductor.

  Total energy components:
  | Sum of eigenvalues            :        -276.16559855 Ha       -7514.84828793 eV
  | XC energy correction          :         -68.01450791 Ha       -1850.76892635 eV
  | XC potential correction       :          87.36956591 Ha        2377.44685162 eV
  | Free-atom electrostatic energy:        -202.36800846 Ha       -5506.71368872 eV
  | Hartree energy correction     :          -5.04400706 Ha        -137.25441545 eV
  | vdW energy correction         :           0.00000000 Ha           0.00000000 eV
  | Entropy correction            :          -0.00000000 Ha          -0.00000000 eV
  | ---------------------------
  | Total energy                  :        -464.22255607 Ha      -12632.13846682 eV
  | Total energy, T -> 0          :        -464.22255607 Ha      -12632.13846682 eV  <-- do not rely on this value for anything but (periodic) metals
  | Electronic free energy        :        -464.22255607 Ha      -12632.13846682 eV

  Derived energy quantities:
  | Kinetic energy                :         461.08249735 Ha       12546.69312168 eV
  | Electrostatic energy          :        -857.29054551 Ha      -23328.06266215 eV
  | Energy correction for multipole
  | error in Hartree potential    :           0.04771704 Ha           1.29844675 eV
  | Sum of eigenvalues per atom                           :        -313.11867866 eV
[...]
    vdW correction   :     0.1813937542E+01    0.1813722996E+01    0.1755556036E+01    0.1267653854E-04    0.3432513842E-08   -0.1128393274E-07
  -----------------------------------------------------------------------------------------------------------------------------------------------------------
  Sum of all contributions        :     0.2279795244E-01    0.2264195796E-01   -0.4427588597E-01    0.2049089974E-03    0.8008349338E-06   -0.1130866668E-05

  +-------------------------------------------------------------------+
  |              Analytical stress tensor - Symmetrized               |
  |                  Cartesian components [eV/A**3]                   |
  +-------------------------------------------------------------------+
  |                x                y                z                |
  |                                                                   |
  |  x         0.00009272       0.00000083       0.00000000           |
  |  y         0.00000083       0.00009208      -0.00000000           |
  |  z         0.00000000      -0.00000000      -0.00018007           |
  |                                                                   |
  |  Pressure:      -0.00000158   [eV/A**3]                           |
  |                                                                   |
  +-------------------------------------------------------------------+

 * Warning: Stress tensor is anisotropic. Be aware that pressure is an isotropic quantity.

  Timings for VdW correction (Tkatchenko-Scheffler 2009 or later):
  | CPU time:        3.668 s, Wall clock time:        3.669 s.
  Removing unitary transformations (pure translations, rotations) from forces on atoms.
  Atomic forces before filtering:
  | Net force on center of mass :  -0.284487E-06  0.821051E-06 -0.247195E-05 eV/A
  Atomic forces after filtering:
  | Net force on center of mass :  -0.696899E-18  0.435562E-18 -0.557519E-17 eV/A

  Energy and forces in a compact form:
  | Total energy uncorrected      :         -0.126288826081598E+05 eV
  | Total energy corrected        :         -0.126288826081598E+05 eV  <-- do not rely on this value for anything but (periodic) metals
  | Electronic free energy        :         -0.126288826081598E+05 eV
  Total atomic forces (unitary forces cleaned) [eV/Ang]:
  |    1          0.514868457770837E-02          0.167945594511318E-03          0.220729894941286E-04
  |    2         -0.774647176453722E-03          0.448083293749176E-03          0.365360840011666E-02
  |    3          0.770817685825163E-03         -0.470768348889038E-03          0.365833453050038E-02
  |    4         -0.515221199055630E-02         -0.136583984889223E-03          0.221301987591689E-04
  |    5          0.841037044980967E-03         -0.492695446407072E-03         -0.377877158084001E-02
  |    6         -0.844887353606470E-03          0.470562117195812E-03         -0.377442458840604E-02
  |    7         -0.330833421092948E-02         -0.180737494931063E-02         -0.894994751149811E-05
  |    8          0.303686861167057E-03          0.998675432099985E-03         -0.593327172325102E-02
  |    9         -0.300798709471457E-03         -0.990349700960217E-03         -0.594435004385159E-02
  |   10          0.331286274702176E-02          0.180514843800527E-02         -0.891691714447085E-05
  |   11         -0.295035941044409E-03         -0.977701948848386E-03          0.597982569959591E-02
  |   12          0.297907359289027E-03          0.985911699967036E-03          0.596888997454978E-02
  |   13         -0.342705358816068E-03          0.534276347895535E-02          0.397965291118682E-04
  |   14         -0.854072015998918E-03         -0.733955429244552E-03          0.380270078253209E-02
  |   15          0.831299684564222E-03          0.738206215066752E-03          0.379952657714680E-02
  |   16          0.375048197844756E-03         -0.534100906553229E-02          0.396970613455366E-04
  |   17          0.705939213098560E-03          0.738342611270257E-03         -0.375360973168856E-02
  |   18         -0.728904122675651E-03         -0.733984952713478E-03         -0.375730396277556E-02
  |   19          0.194892490522959E-02         -0.347758640990108E-02          0.721463187138599E-05
  |   20         -0.873558368790214E-03          0.222923535235124E-03         -0.593649577512712E-02
  |   21          0.881823340254084E-03         -0.226462909555837E-03         -0.592571725321696E-02
  |   22         -0.195122668478478E-02          0.347346277752859E-02          0.722468812217773E-05
  |   23          0.912486449310669E-03         -0.217371296314725E-03          0.590493919425644E-02
  |   24         -0.904136133166754E-03          0.213819248981858E-03          0.591585026641051E-02

  ------------------------------------ 
  Start decomposition of the XC Energy 
  ------------------------------------ 
  X and C from original XC functional choice 
  Hartree-Fock Energy :          0.000000000 Ha              0.000000000 eV
  X Energy            :        -66.190114587 Ha          -1801.124658113 eV
  C Energy            :         -2.763278808 Ha            -75.192642124 eV
  Total XC Energy     :        -68.953393394 Ha          -1876.317300237 eV
  ------------------------------------ 
  LDA X and C from self-consistent density 
  X Energy LDA        :        -59.920088445 Ha          -1630.508565959 eV
  C Energy LDA        :         -5.344440612 Ha           -145.429628424 eV
  ------------------------------------ 
  End decomposition of the XC Energy 
  ------------------------------------ 

------------------------------------------------------------
  Relaxation / MD: End force evaluation.       :  max(cpu_time)    wall_clock(cpu1)
  | Time for this force evaluation             :       77.657 s          77.662 s

------------------------------------------------------------
  Geometry optimization: Attempting to predict improved coordinates.

  +-------------------------------------------------------------------+
  | Generalized derivatives on lattice vectors [eV/A]                 |
  +-------------------------------------------------------------------+
  |lattice_vector       0.00418891       0.00003762       0.00000015  |
  |lattice_vector       0.00003762       0.00416018      -0.00000021  |
  |lattice_vector       0.00000010      -0.00000014      -0.00533374  |
  +-------------------------------------------------------------------+
  | Forces on lattice vectors cleaned from atomic contributions [eV/A]|
  +-------------------------------------------------------------------+
  |lattice_vector      -0.00418891      -0.00003762      -0.00000015  |
  |lattice_vector      -0.00003762      -0.00416018       0.00000021  |
  |lattice_vector      -0.00000010       0.00000014       0.00533374  |
  +-------------------------------------------------------------------+
  Removing unitary transformations (pure translations, rotations) from forces on atoms.
  Atomic forces before filtering:
  | Net force on center of mass :  -0.696899E-18  0.435562E-18 -0.557519E-17 eV/A
  Atomic forces after filtering:
  | Net force on center of mass :  -0.696899E-18  0.261337E-18 -0.557519E-17 eV/A
  Net remaining forces (excluding translations, rotations) in present geometry:
  || Forces on atoms   || =   0.597983E-02 eV/A.
  || Forces on lattice || =   0.533374E-02 eV/A^3.
  Maximum force component is  0.597983E-02 eV/A.
  Present geometry is converged.

------------------------------------------------------------
  Final atomic structure:
                         x [A]             y [A]             z [A]
  lattice_vector         5.44244788        0.00003346       -0.00000001
  lattice_vector         0.00003346        5.44253727       -0.00000003
  lattice_vector        -0.00000000       -0.00000001        8.30108828

            atom         0.98876682        3.70938171        4.15056403  C
            atom         0.49481870        3.21560864        5.36127376  C
            atom        -0.49478478        2.22692875        5.36127378  C
            atom        -0.98873143        1.73315344        4.15056404  C
            atom        -0.49478945        2.22693274        2.93985640  C
            atom         0.49482338        3.21560460        2.93985641  C
            atom         1.76087193        4.48012516        4.15056455  H
            atom         0.88451825        3.60477388        6.30276029  H
            atom        -0.88448388        1.83776259        6.30276061  H
            atom        -1.76083689        0.96241031        4.15056457  H
            atom        -0.88448854        1.83776986        1.99836684  H
            atom         0.88452291        3.60476656        1.99836714  H
            atom         1.73284561        0.98849122       -0.00001945  C
            atom         2.22675878        0.49468962        1.21069075  C
            atom         3.21568840       -0.49465535        1.21069073  C
            atom         3.70959933       -0.98845843       -0.00001946  C
            atom         3.21569210       -0.49465316       -1.21072932  C
            atom         2.22675507        0.49468744       -1.21072934  C
            atom         0.96186223        1.76036611       -0.00001891  H
            atom         1.83744914        0.88427526        2.15216739  H
            atom         3.60499722       -0.88424137        2.15216709  H
            atom         4.48058295       -1.76033309       -0.00001893  H
            atom         3.60499505       -0.88424488       -2.15220472  H
            atom         1.83745129        0.88427879       -2.15220503  H

  Fractional coordinates:
                         L1                L2                L3
       atom_frac         0.18167267        0.68155264        0.50000240  C
       atom_frac         0.09091478        0.59082840        0.64585192  C
       atom_frac        -0.09091469        0.40917162        0.64585192  C
       atom_frac        -0.18167231        0.31844697        0.50000240  C
       atom_frac        -0.09091555        0.40917235        0.35415313  C
       atom_frac         0.09091564        0.59082766        0.35415313  C
       atom_frac         0.32353905        0.82316650        0.50000246  H
       atom_frac         0.16251806        0.66233234        0.75926916  H
       atom_frac        -0.16251790        0.33766752        0.75926920  H
       atom_frac        -0.32353875        0.17683317        0.50000246  H
       atom_frac        -0.16251875        0.33766885        0.24073553  H
       atom_frac         0.16251892        0.66233100        0.24073556  H
       atom_frac         0.31839341        0.18162128       -0.00000234  C
       atom_frac         0.40914599        0.09089068        0.14584723  C
       atom_frac         0.59085388       -0.09089053        0.14584723  C
       atom_frac         0.68160605       -0.18162140       -0.00000234  C
       atom_frac         0.59085456       -0.09089013       -0.14585188  C
       atom_frac         0.40914531        0.09089028       -0.14585188  C
       atom_frac         0.17673139        0.32344477       -0.00000228  H
       atom_frac         0.33761347        0.16247274        0.25926328  H
       atom_frac         0.66238625       -0.16247266        0.25926325  H
       atom_frac         0.82326811       -0.32344485       -0.00000228  H
       atom_frac         0.66238585       -0.16247331       -0.25926778  H
       atom_frac         0.33761386        0.16247339       -0.25926781  H
------------------------------------------------------------
  |------------------------------------------------------
  | Final ELSI Output
  |------------------------------------------------------
  |
  | Physical Properties
  |   Number of electrons       :        0.84000000E+02
  |   Number of states          :                    96
  |
  | Matrix Properties
  |   Matrix format             :           BLACS_DENSE
  |   Number of basis functions :                   228
  |
  | Computational Details
  |   Parallel mode             :           SINGLE_PROC
  |   Solver requested          :                  ELPA
  |   Number of ELSI calls      :                   423
  |
  |------------------------------------------------------
  | ELSI Project (c)  elsi-interchange.org
  |------------------------------------------------------

------------------------------------------------------------------------------
  Final output of selected total energy values:

  The following output summarizes some interesting total energy values
  at the end of a run (AFTER all relaxation, molecular dynamics, etc.).

  | Total energy of the DFT / Hartree-Fock s.c.f. calculation      :         -12628.882608160 eV
  | Final zero-broadening corrected energy (caution - metals only) :         -12628.882608160 eV
  | For reference only, the value of 1 Hartree used in FHI-aims is :             27.211384500 eV
  | For reference only, the overall average (free atom contribution
  | + realspace contribution) of the electrostatic potential after
  | s.c.f. convergence is                                          :             -6.676502538 eV

  Before relying on these values, please be sure to understand exactly which
  total energy value is referred to by a given number. Different objects may
  all carry the same name 'total energy'. Definitions:

  Total energy of the DFT / Hartree-Fock s.c.f. calculation:
  | Note that this energy does not include ANY quantities calculated after the
  | s.c.f. cycle, in particular not ANY RPA, MP2, etc. many-body perturbation terms.

  Final zero-broadening corrected energy:
  | For metallic systems only, a broadening of the occupation numbers at the Fermi
  | level can be extrapolated back to zero broadening by an electron-gas inspired
  | formula. For all systems that are not real metals, this value can be
  | meaningless and should be avoided.

------------------------------------------------------------------------------
  Methods described in the following list of references were used in this FHI-aims run.
  If you publish the results, please make sure to cite these reference if they apply.
  FHI-aims is an academic code, and for our developers (often, Ph.D. students
  and postdocs), scientific credit in the community is essential.
  Thank you for helping us!

  For any use of FHI-aims, please cite:

    Volker Blum, Ralf Gehrke, Felix Hanke, Paula Havu, Ville Havu,
    Xinguo Ren, Karsten Reuter, and Matthias Scheffler
    'Ab initio molecular simulations with numeric atom-centered orbitals'
    Computer Physics Communications 180, 2175-2196 (2009)
    http://dx.doi.org/10.1016/j.cpc.2009.06.022


  For the analytical stress tensor used in your run, please cite:

    Franz Knuth, Christian Carbogno, Viktor Atalla, Volker Blum, Matthias Scheffler
    'All-electron formalism for total energy strain derivatives and
    stress tensor components for numeric atom-centered orbitals'
    Computer Physics Communications 190, 33-50 (2015).
    http://dx.doi.org/10.1016/j.cpc.2015.01.003


  The provided symmetry information was generated with SPGlib:

    Atsushi Togo, Yusuke Seto, Dimitar Pashov
    SPGlib 1.7.3 obtained from http://spglib.sourceforge.net
    Copyright (C) 2008 Atsushi Togo


  The scalable eigensolver library ELPA was used in your run.
  ELPA is essential especially for large systems on hundreds or thousands of CPUs.
  For ELPA, please cite:

    Andreas Marek, Volker Blum, Rainer Johanni, Ville Havu, Bruno Lang,
    Thomas Auckenthaler, Alexander Heinecke, Hans-Joachim Bungartz, and Hermann Lederer,
    'The ELPA Library - Scalable Parallel Eigenvalue Solutions
    for Electronic Structure Theory and Computational Science'
    The Journal of Physics: Condensed Matter 26, 213201 (2014).
    http://dx.doi.org/10.1088/0953-8984/26/21/213201


  The ELSI infrastructure was used in your run to solve the Kohn-Sham electronic structure.
  Please check out http://elsi-interchange.org to learn more.
  If scalability is important for your project, please acknowledge ELSI by citing:

    V. W-z. Yu, F. Corsetti, A. Garcia, W. P. Huhn, M. Jacquelin, W. Jia,
    B. Lange, L. Lin, J. Lu, W. Mi, A. Seifitokaldani, A. Vazquez-Mayagoitia,
    C. Yang, H. Yang, and V. Blum
    'ELSI: A unified software interface for Kohn-Sham electronic structure solvers'
    Computer Physics Communications 222, 267-285 (2018).
    http://dx.doi.org/10.1016/j.cpc.2017.09.007


  For the real-space grid partitioning and parallelization used in this calculation, please cite:

    Ville Havu, Volker Blum, Paula Havu, and Matthias Scheffler,
    'Efficient O(N) integration for all-electron electronic structure calculation'
    'using numerically tabulated basis functions'
    Journal of Computational Physics 228, 8367-8379 (2009).
    http://dx.doi.org/10.1016/j.jcp.2009.08.008

  Of course, there are many other important community references, e.g., those cited in the
  above references. Our list is limited to references that describe implementations in the
  FHI-aims code. The reason is purely practical (length of this list) - please credit others as well.

------------------------------------------------------------
          Leaving FHI-aims.
          Date     :  20191122, Time     :  151720.353

          Computational steps:
          | Number of self-consistency cycles          :          140
          | Number of SCF (re)initializations          :           16
          | Number of relaxation steps                 :           15

          Detailed time accounting                     :  max(cpu_time)    wall_clock(cpu1)
          | Total time                                 :     1482.653 s        1488.892 s
          | Preparation time                           :        0.375 s           0.656 s
          | Boundary condition initalization           :        2.271 s           2.468 s
          | Grid partitioning                          :        3.404 s           3.430 s
          | Preloading free-atom quantities on grid    :       46.512 s          46.525 s
          | Free-atom superposition energy             :        5.231 s           5.231 s
          | Total time for integrations                :      160.661 s         160.654 s
          | Total time for solution of K.-S. equations :        7.874 s           8.848 s
          | Total time for EV reorthonormalization     :        0.163 s           0.130 s
          | Total time for density & force components  :      573.971 s         573.962 s
          | Total time for mixing & preconditioning    :      140.905 s         140.954 s
          | Total time for Hartree multipole update    :        3.072 s           3.069 s
          | Total time for Hartree multipole sum       :      477.939 s         478.584 s
          | Total time for total energy evaluation     :        0.042 s           0.075 s
          | Total time for vdW correction              :       56.233 s          56.238 s

          Partial memory accounting:
          | Residual value for overall tracked memory usage across tasks:     0.000000 MB (should be 0.000000 MB)
          | Peak values for overall tracked memory usage:
          |   Minimum:       17.100 MB (on task 3 after allocating d_wave)
          |   Maximum:       18.037 MB (on task 2 after allocating d_wave)
          |   Average:       17.518 MB
          | Largest tracked array allocation:
          |   Minimum:        2.675 MB (hessian_basis_wave on task 3)
          |   Maximum:        2.734 MB (hessian_basis_wave on task 2)
          |   Average:        2.696 MB
          Note:  These values currently only include a subset of arrays which are explicitly tracked.
          The "true" memory usage will be greater.

          Have a nice day.
------------------------------------------------------------
