------------------------------------------------------------
          Invoking FHI-aims ...
          Version 190522
          Compiled on 2019/10/10 at 22:48:22 on host coe.psc.edu.

          When using FHI-aims, please cite the following reference:

          Volker Blum, Ralf Gehrke, Felix Hanke, Paula Havu,
          Ville Havu, Xinguo Ren, Karsten Reuter, and Matthias Scheffler,
          'Ab Initio Molecular Simulations with Numeric Atom-Centered Orbitals',
          Computer Physics Communications 180, 2175-2196 (2009)

          For any questions about FHI-aims, please visit the aimsclub website
          with its forums and wiki. Contributions to both the forums and the
          wiki are warmly encouraged - they are for you, and everyone is welcome there.

------------------------------------------------------------



  Date     :  20191122, Time     :  151720.665
  Time zero on CPU 1             :   0.151817346200000E+04  s.
  Internal wall clock time zero  :           343667840.665  s.

  FHI-aims created a unique identifier for this run for later identification
  aims_uuid : EBC56769-2C3D-41CB-A799-356C42336CDA

  Using        4 parallel tasks.
  Task        0 on host e001 reporting.
  Task        1 on host e001 reporting.
  Task        2 on host e001 reporting.
  Task        3 on host e001 reporting.

  Performing system and environment tests:
  | Environment variable OMP_NUM_THREADS correctly set to 1.
  | Maximum stacksize for task 0: unlimited
  | Maximum stacksize for task 1: unlimited
  | Maximum stacksize for task 2: unlimited
  | Maximum stacksize for task 3: unlimited
  | Current stacksize for task 0: unlimited
  | Current stacksize for task 1: unlimited
  | Current stacksize for task 2: unlimited
  | Current stacksize for task 3: unlimited
  | Checking for scalapack...
  | Testing pdtran()...
  | All pdtran() tests passed.

  Obtaining array dimensions for all initial allocations:
  
  -----------------------------------------------------------------------
  Parsing control.in (first pass over file, find array dimensions only).
  The contents of control.in will be repeated verbatim below
  unless switched off by setting 'verbatim_writeout .false.' .
  in the first line of control.in .
  -----------------------------------------------------------------------
  
    #########################################################################################
    #
    #   input file control.in tight for scaling studies
    #
    #########################################################################################
    #
    #  Physical model
    #
      xc                 pbe
      spin               none
      relativistic       none
      override_relativity .true.
      charge             0.
    #
    #  SCF convergence
    #
      occupation_type    gaussian 0.1
      mixer              pulay
        n_max_pulay        10
        charge_mix_param   0.3
      sc_accuracy_rho    1E-4
      sc_accuracy_eev    1E-2
      sc_accuracy_etot   1E-4
      sc_accuracy_forces 1E-2
      sc_iter_limit      1000
  harmonic_length_scale 0.02
  energy_tolerance 5E-3
  
   postprocess_anyway            .true.
  #    restart restart_file
    #KS_method scalapack_old
    #KS_method serial also works
   hessian_to_restart_geometry     .false.
  
    #
    #
    #  Eigenvalue solution
      #KS_method  lapack
    #  partition_type rho_r2 ## !! use only if on BG you run into an unexpected
    #memory shortage per processor!!
  
    #
    #  accuracy / efficiency for normal scf
    #
    #  density_update_method density_matrix
    #  collect_eigenvectors .false.
    #  empty_states     3 ## This is the setting for light elements. Careful!!
    #
    #  use_local_index .true.
    ##  load_balancing .true.
    #  distributed_spline_storage .false.  ## Helps save memory but may hurt your
    #  performance. Test effect for VERY MANY CPUs.
    #
    #  For periodic boundary conditions
    #
        k_grid 3 3 3
    #    output k_eigenvalue 1
  
    #
    #  Relaxation
    #
    #  restart_relaxations .true.
     relax_geometry   bfgs 1.e-2
      vdw_correction_hirshfeld
  relax_unit_cell full
    #  output Hirshfeld-I
    #
    ################################################################################
    ################################################################################
    #
    #  FHI-aims code project
    #  VB, Fritz-Haber Institut, 2009
    #
    #  Suggested "light" defaults for H atom (to be pasted into control.in file)
    #  Be sure to double-check any results obtained with these settings for post-processing,
    #  e.g., with the "tight" defaults and larger basis sets.
    #
    ################################################################################
      species        H
    #     global species definitions
        nucleus             1
        mass                1.00794
    #
        l_hartree           4
    #
        cut_pot             3.5  1.5  1.0
        basis_dep_cutoff    1e-4
    #
        radial_base         24 5.0
        radial_multiplier   1
        angular_grids       specified
          division   0.2421   50
          division   0.3822  110
          division   0.4799  194
          division   0.5341  302
    #      division   0.5626  434
    #      division   0.5922  590
    #      division   0.6542  770
    #      division   0.6868 1202
    #      outer_grid  770
          outer_grid  302
    ################################################################################
    #
    #  Definition of "minimal" basis
    #
    ################################################################################
    #     valence basis states
        valence      1  s   1.
    #     ion occupancy
        ion_occ      1  s   0.5
    ################################################################################
    #
    #  Suggested additional basis functions. For production calculations,
    #  uncomment them one after another (the most important basis functions are
    #  listed first).
    #
    #  Basis constructed for dimers: 0.5 A, 0.7 A, 1.0 A, 1.5 A, 2.5 A
    #
    ################################################################################
    #  "First tier" - improvements: -1014.90 meV to -62.69 meV
         hydro 2 s 2.1
         hydro 2 p 3.5
    #  "Second tier" - improvements: -12.89 meV to -1.83 meV
    #     hydro 1 s 0.85
    #     hydro 2 p 3.7
    #     hydro 2 s 1.2
    #     hydro 3 d 7
    #  "Third tier" - improvements: -0.25 meV to -0.12 meV
    #     hydro 4 f 11.2
    #     hydro 3 p 4.8
    #     hydro 4 d 9
    #     hydro 3 s 3.2
    ################################################################################
    #
    #  FHI-aims code project
    #  VB, Fritz-Haber Institut, 2009
    #
    #  Suggested "light" defaults for C atom (to be pasted into control.in file)
    #  Be sure to double-check any results obtained with these settings for post-processing,
    #  e.g., with the "tight" defaults and larger basis sets.
    #
    ################################################################################
      species        C
    #     global species definitions
        nucleus             6
        mass                12.0107
    #
        l_hartree           4
    #
        cut_pot             3.5  1.5  1.0
        basis_dep_cutoff    1e-4
    #
        radial_base         34 5.0
        radial_multiplier   1
        angular_grids specified
          division   0.3326   50
          division   0.5710  110
          division   0.7727  194
          division   0.8772  302
    #      division   0.9334  434
    #      division   0.9625  590
    #      division   0.9924  770
    #      division   1.0230  974
    #      division   1.4589 1202
    #     outer_grid  974
         outer_grid 302
    ################################################################################
    #
    #  Definition of "minimal" basis
    #
    ################################################################################
    #     valence basis states
        valence      2  s   2.
        valence      2  p   2.
    #     ion occupancy
        ion_occ      2  s   1.
        ion_occ      2  p   1.
    ################################################################################
    #
    #  Suggested additional basis functions. For production calculations,
    #  uncomment them one after another (the most important basis functions are
    #  listed first).
    #
    #  Constructed for dimers: 1.0 A, 1.25 A, 1.5 A, 2.0 A, 3.0 A
    #
    ################################################################################
    #  "First tier" - improvements: -1214.57 meV to -155.61 meV
         hydro 2 p 1.7
         hydro 3 d 6
         hydro 2 s 4.9
    #  "Second tier" - improvements: -67.75 meV to -5.23 meV
    #     hydro 4 f 9.8
    #     hydro 3 p 5.2
    #     hydro 3 s 4.3
    #     hydro 5 g 14.4
    #     hydro 3 d 6.2
    #  "Third tier" - improvements: -2.43 meV to -0.60 meV
    #     hydro 2 p 5.6
    #     hydro 2 s 1.4
    #     hydro 3 d 4.9
    #     hydro 4 f 11.2
    #  "Fourth tier" - improvements: -0.39 meV to -0.18 meV
    #     hydro 2 p 2.1
    #     hydro 5 g 16.4
    #     hydro 4 d 13.2
    #     hydro 3 s 13.6
    #     hydro 4 f 17.6
    #  Further basis functions - improvements: -0.08 meV and below
    #     hydro 3 s 2
    #     hydro 3 p 6
    #     hydro 4 d 20
    ################################################################################
    #
    #  FHI-aims code project
    #  VB, Fritz-Haber Institut, 2009
    #
    #  Suggested "light" defaults for N atom (to be pasted into control.in file)
    #  Be sure to double-check any results obtained with these settings for post-processing,
    #  e.g., with the "tight" defaults and larger basis sets.
    #
    ################################################################################
      species        N
    #     global species definitions
        nucleus             7
        mass                14.0067
    #
        l_hartree           4
    #
        cut_pot             3.5  1.5  1.0
        basis_dep_cutoff    1e-4
    #
        radial_base         35 5.0
        radial_multiplier   1
        angular_grids       specified
          division   0.2599   50
          division   0.4601  110
          division   0.5885  194
          division   0.6503  302
    #      division   0.6939  434
    #      division   0.7396  590
    #      division   0.7632  770
    #      division   0.8122  974
    #      division   1.1604 1202
    #      outer_grid  974
          outer_grid  302
    ################################################################################
    #
    #  Definition of "minimal" basis
    #
    ################################################################################
    #     valence basis states
        valence      2  s   2.
        valence      2  p   3.
    #     ion occupancy
        ion_occ      2  s   1.
        ion_occ      2  p   2.
    ################################################################################
    #
    #  Suggested additional basis functions. For production calculations,
    #  uncomment them one after another (the most important basis functions are
    #  listed first).
    #
    #  Constructed for dimers: 1.0 A, 1.1 A, 1.5 A, 2.0 A, 3.0 A
    #
    ################################################################################
    #  "First tier" - improvements: -1193.42 meV to -220.60 meV
         hydro 2 p 1.8
         hydro 3 d 6.8
         hydro 3 s 5.8
    #  "Second tier" - improvements: -80.21 meV to -6.86 meV
    #     hydro 4 f 10.8
    #     hydro 3 p 5.8
    #     hydro 1 s 0.8
    #     hydro 5 g 16
    #     hydro 3 d 4.9
    #  "Third tier" - improvements: -4.29 meV to -0.53 meV
    #     hydro 3 s 16
    #     ionic 2 p auto
    #     hydro 3 d 6.6
    #     hydro 4 f 11.6
    #  "Fourth tier" - improvements: -0.75 meV to -0.25 meV
    #     hydro 2 p 4.5
    #     hydro 2 s 2.4
    #     hydro 5 g 14.4
    #     hydro 4 d 14.4
    #     hydro 4 f 16.8
    # Further basis functions - -0.21 meV and below
    #     hydro 3 p 14.8
    #     hydro 3 s 4.4
    #     hydro 3 d 19.6
    #     hydro 5 g 12.8
    ################################################################################
    #
    #  FHI-aims code project
    #  VB, Fritz-Haber Institut, 2009
    #
    #  Suggested "light" defaults for O atom (to be pasted into control.in file)
    #  Be sure to double-check any results obtained with these settings for post-processing,
    #  e.g., with the "tight" defaults and larger basis sets.
    #
    ################################################################################
      species        O
    #     global species definitions
        nucleus             8
        mass                15.9994
    #
        l_hartree           4
    #
        cut_pot             3.5  1.5  1.0
        basis_dep_cutoff    1e-4
    #
        radial_base         36 5.0
        radial_multiplier   1
         angular_grids specified
          division   0.2659   50
          division   0.4451  110
          division   0.6052  194
          division   0.7543  302
    #      division   0.8014  434
    #      division   0.8507  590
    #      division   0.8762  770
    #      division   0.9023  974
    #      division   1.2339 1202
    #      outer_grid 974
          outer_grid 302
    ################################################################################
    #
    #  Definition of "minimal" basis
    #
    ################################################################################
    #     valence basis states
        valence      2  s   2.
        valence      2  p   4.
    #     ion occupancy
        ion_occ      2  s   1.
        ion_occ      2  p   3.
    ################################################################################
    #
    #  Suggested additional basis functions. For production calculations,
    #  uncomment them one after another (the most important basis functions are
    #  listed first).
    #
    #  Constructed for dimers: 1.0 A, 1.208 A, 1.5 A, 2.0 A, 3.0 A
    #
    ################################################################################
    #  "First tier" - improvements: -699.05 meV to -159.38 meV
         hydro 2 p 1.8
         hydro 3 d 7.6
         hydro 3 s 6.4
    #  "Second tier" - improvements: -49.91 meV to -5.39 meV
    #     hydro 4 f 11.6
    #     hydro 3 p 6.2
    #     hydro 3 d 5.6
    #     hydro 5 g 17.6
    #     hydro 1 s 0.75
    #  "Third tier" - improvements: -2.83 meV to -0.50 meV
    #     ionic 2 p auto
    #     hydro 4 f 10.8
    #     hydro 4 d 4.7
    #     hydro 2 s 6.8
    #  "Fourth tier" - improvements: -0.40 meV to -0.12 meV
    #     hydro 3 p 5
    #     hydro 3 s 3.3
    #     hydro 5 g 15.6
    #     hydro 4 f 17.6
    #     hydro 4 d 14
    # Further basis functions - -0.08 meV and below
    #     hydro 3 s 2.1
    #     hydro 4 d 11.6
    #     hydro 3 p 16
    #     hydro 2 s 17.2
    ################################################################################
    #
    #  FHI-aims code project
    #  VB, Fritz-Haber Institut, 2009
    #
    #  Suggested "light" defaults for S atom (to be pasted into control.in file)
    #  Be sure to double-check any results obtained with these settings for post-processing,
    #  e.g., with the "tight" defaults and larger basis sets.
    #
    ################################################################################
      species        S
    #     global species definitions
        nucleus             16
        mass                32.065
    #
        l_hartree           4
    #
        cut_pot             3.5          1.5  1.0
        basis_dep_cutoff    1e-4
    #
        radial_base         44 5.0
        radial_multiplier   1
        angular_grids       specified
          division   0.4665  110
          division   0.5810  194
          division   0.7139  302
    #      division   0.8274  434
    #      division   0.9105  590
    #      division   1.0975  770
    #      division   1.2028  974
    #      outer_grid  974
          outer_grid  302
    ################################################################################
    #
    #  Definition of "minimal" basis
    #
    ################################################################################
    #     valence basis states
        valence      3  s   2.
        valence      3  p   4.
    #     ion occupancy
        ion_occ      3  s   1.
        ion_occ      3  p   3.
    ################################################################################
    #
    #  Suggested additional basis functions. For production calculations,
    #  uncomment them one after another (the most important basis functions are
    #  listed first).
    #
    #  Constructed for dimers: 1.6 A, 1.9 A, 2.5 A, 3.25 A, 4.0 A
    #
    ################################################################################
    #  "First tier" - improvements: -652.81 meV to -45.53 meV
         ionic 3 d auto
         hydro 2 p 1.8
    #     hydro 4 f 7
         ionic 3 s auto
    #  "Second tier" - improvements: -30.20 meV to -1.74 meV
    #     hydro 4 d 6.2
    #     hydro 5 g 10.8
    #     hydro 4 p 4.9
    #     hydro 5 f 10
    #     hydro 1 s 0.8
    #  "Third tier" - improvements: -1.04 meV to -0.20 meV
    #     hydro 3 d 3.9
    #     hydro 3 d 2.7
    #     hydro 5 g 12
    #     hydro 4 p 10.4
    #     hydro 5 f 12.4
    #     hydro 2 s 1.9
    #  "Fourth tier" - improvements: -0.35 meV to -0.06 meV
    #     hydro 4 d 10.4
    #     hydro 4 p 7.2
    #     hydro 4 d 10
    #     hydro 5 g 19.2
    #     hydro 4 s 12
  
  
  -----------------------------------------------------------------------
  Completed first pass over input file control.in .
  -----------------------------------------------------------------------
  
  
  -----------------------------------------------------------------------
  Parsing geometry.in (first pass over file, find array dimensions only).
  The contents of geometry.in will be repeated verbatim below
  unless switched off by setting 'verbatim_writeout .false.' .
  in the first line of geometry.in .
  -----------------------------------------------------------------------
  
  lattice_vector 6.171705 0.0 0.0
  lattice_vector -3.085853 5.344853 0.0
  lattice_vector 0.0 0.0 6.255871
  atom 0.23664 4.94170 0.61188 C
  atom 1.31211 4.04753 0.61188 C
  atom 1.07546 2.66906 0.61188 C
  atom -0.23665 2.18477 0.61188 C
  atom -1.31211 3.07894 0.61188 C
  atom -1.07546 4.45741 0.61188 C
  atom 0.42131 6.01737 0.61188 H
  atom 2.33600 4.42544 0.61188 H
  atom 1.91469 1.97130 0.61188 H
  atom -0.42131 1.10910 0.61188 H
  atom -2.33600 2.70103 0.61188 H
  atom -1.91469 5.15517 0.61188 H
  atom -1.07546 2.66906 3.73981 C
  atom 0.23664 2.18477 3.73981 C
  atom 1.31211 3.07894 3.73981 C
  atom 1.07546 4.45741 3.73981 C
  atom -0.23665 4.94170 3.73981 C
  atom -1.31211 4.04753 3.73981 C
  atom -1.91469 1.97130 3.73981 H
  atom 0.42131 1.10910 3.73981 H
  atom 2.33600 2.70103 3.73981 H
  atom 1.91469 5.15517 3.73981 H
  atom -0.42131 6.01737 3.73981 H
  atom -2.33600 4.42544 3.73981 H
  
  -----------------------------------------------------------------------
  Completed first pass over input file geometry.in .
  -----------------------------------------------------------------------
  

  Basic array size parameters:
  | Number of species                 :        5
  | Number of atoms                   :       24
  | Number of lattice vectors         :        3
  | Max. basis fn. angular momentum   :        2
  | Max. atomic/ionic basis occupied n:        3
  | Max. number of basis fn. types    :        3
  | Max. radial fns per species/type  :        5
  | Max. logarithmic grid size        :     1357
  | Max. radial integration grid size :       44
  | Max. angular integration grid size:      302
  | Max. angular grid division number :        8
  | Radial grid for Hartree potential :     1357
  | Number of spin channels           :        1

------------------------------------------------------------
          Reading file control.in.
------------------------------------------------------------
  XC: Using PBE gradient-corrected functionals.
  Spin treatment: No spin polarisation.
  Non-relativistic treatment of kinetic energy.
  override_relativity: Explicitly overriding any built-in relativity checks.
  If you use this flag, you should really know what you are doing.
  Charge =   0.000000E+00: Neutral system requested explicitly.
  Occupation type: Gaussian broadening, width =   0.100000E+00 eV.
  Using pulay charge density mixing.
  Pulay mixing - number of memorized iterations:   10
  Charge density mixing - mixing parameter:     0.3000
  Convergence accuracy of self-consistent charge density:  0.1000E-03
  Convergence accuracy of sum of eigenvalues:  0.1000E-01
  Convergence accuracy of total energy:  0.1000E-03
  Convergence accuracy of forces:  0.1000E-01
  Maximum number of s.-c. iterations  :  1000
  Assuming qualitatively harmonic for steps shorter than   0.200000E-01 A.
  Max energy increase before discarding BFGS move:   0.500000E-02 eV
  Postprocessing will be performed even if SCF does not converge.
  Hessian information is explicitly not written to geometry.in.next_step for relaxation restart.
  Found k-point grid:         3         3         3
  Geometry relaxation: Modified BFGS - TRM (trust radius method) for lattice optimization.
  Convergence accuracy for geometry relaxation: Maximum force <   0.100000E-01 eV/A.
 
  Reading configuration options for species H                   .
  | Found nuclear charge :   1.0000
  | Found atomic mass :    1.00794000000000      amu
  | Found l_max for Hartree potential  :   4
  | Found cutoff potl. onset [A], width [A], scale factor :    3.50000    1.50000    1.00000
  | Threshold for basis-dependent cutoff potential is   0.100000E-03
  | Found data for basic radial integration grid :    24 points, outermost radius =    5.000 A
  | Found multiplier for basic radial grid :   1
  | Found angular grid specification: user-specified.
  | Specified grid contains     5 separate shells.
  | Check grid settings after all constraints further below.
  | Found free-atom valence shell :  1 s   1.000
  | Found free-ion valence shell :  1 s   0.500
  | Found hydrogenic basis function :  2 s   2.100
  | Found hydrogenic basis function :  2 p   3.500
  Species H                   : Missing cutoff potential type.
  Defaulting to exp(1/x)/(1-x)^2 type cutoff potential.
  Species H : No 'logarithmic' tag. Using default grid for free atom:
  | Default logarithmic grid data [bohr] : 0.1000E-03 0.1000E+03 0.1012E+01
  Species H : On-site basis accuracy parameter (for Gram-Schmidt orthonormalisation) not specified.
  Using default value basis_acc =  0.1000000E-03.
  Species H                   : Using default innermost maximum threshold i_radial=  2 for radial functions.
  Species H                   : Default cutoff onset for free atom density etc. : 0.35000000E+01 AA.
  Species H                   : Basic radial grid will be enhanced according to radial_multiplier =   1, to contain    24 grid points.
 
  Reading configuration options for species C                   .
  | Found nuclear charge :   6.0000
  | Found atomic mass :    12.0107000000000      amu
  | Found l_max for Hartree potential  :   4
  | Found cutoff potl. onset [A], width [A], scale factor :    3.50000    1.50000    1.00000
  | Threshold for basis-dependent cutoff potential is   0.100000E-03
  | Found data for basic radial integration grid :    34 points, outermost radius =    5.000 A
  | Found multiplier for basic radial grid :   1
  | Found angular grid specification: user-specified.
  | Specified grid contains     5 separate shells.
  | Check grid settings after all constraints further below.
  | Found free-atom valence shell :  2 s   2.000
  | Found free-atom valence shell :  2 p   2.000
  | Found free-ion valence shell :  2 s   1.000
  | Found free-ion valence shell :  2 p   1.000
  | Found hydrogenic basis function :  2 p   1.700
  | Found hydrogenic basis function :  3 d   6.000
  | Found hydrogenic basis function :  2 s   4.900
  Species C                   : Missing cutoff potential type.
  Defaulting to exp(1/x)/(1-x)^2 type cutoff potential.
  Species C : No 'logarithmic' tag. Using default grid for free atom:
  | Default logarithmic grid data [bohr] : 0.1000E-03 0.1000E+03 0.1012E+01
  Species C : On-site basis accuracy parameter (for Gram-Schmidt orthonormalisation) not specified.
  Using default value basis_acc =  0.1000000E-03.
  Species C                   : Using default innermost maximum threshold i_radial=  2 for radial functions.
  Species C                   : Default cutoff onset for free atom density etc. : 0.35000000E+01 AA.
  Species C                   : Basic radial grid will be enhanced according to radial_multiplier =   1, to contain    34 grid points.
 
  Reading configuration options for species N                   .
  | Found nuclear charge :   7.0000
  | Found atomic mass :    14.0067000000000      amu
  | Found l_max for Hartree potential  :   4
  | Found cutoff potl. onset [A], width [A], scale factor :    3.50000    1.50000    1.00000
  | Threshold for basis-dependent cutoff potential is   0.100000E-03
  | Found data for basic radial integration grid :    35 points, outermost radius =    5.000 A
  | Found multiplier for basic radial grid :   1
  | Found angular grid specification: user-specified.
  | Specified grid contains     5 separate shells.
  | Check grid settings after all constraints further below.
  | Found free-atom valence shell :  2 s   2.000
  | Found free-atom valence shell :  2 p   3.000
  | Found free-ion valence shell :  2 s   1.000
  | Found free-ion valence shell :  2 p   2.000
  | Found hydrogenic basis function :  2 p   1.800
  | Found hydrogenic basis function :  3 d   6.800
  | Found hydrogenic basis function :  3 s   5.800
  Species N                   : Missing cutoff potential type.
  Defaulting to exp(1/x)/(1-x)^2 type cutoff potential.
  Species N : No 'logarithmic' tag. Using default grid for free atom:
  | Default logarithmic grid data [bohr] : 0.1000E-03 0.1000E+03 0.1012E+01
  Species N : On-site basis accuracy parameter (for Gram-Schmidt orthonormalisation) not specified.
  Using default value basis_acc =  0.1000000E-03.
  Species N                   : Using default innermost maximum threshold i_radial=  2 for radial functions.
  Species N                   : Default cutoff onset for free atom density etc. : 0.35000000E+01 AA.
  Species N                   : Basic radial grid will be enhanced according to radial_multiplier =   1, to contain    35 grid points.
 
  Reading configuration options for species O                   .
  | Found nuclear charge :   8.0000
  | Found atomic mass :    15.9994000000000      amu
  | Found l_max for Hartree potential  :   4
  | Found cutoff potl. onset [A], width [A], scale factor :    3.50000    1.50000    1.00000
  | Threshold for basis-dependent cutoff potential is   0.100000E-03
  | Found data for basic radial integration grid :    36 points, outermost radius =    5.000 A
  | Found multiplier for basic radial grid :   1
  | Found angular grid specification: user-specified.
  | Specified grid contains     5 separate shells.
  | Check grid settings after all constraints further below.
  | Found free-atom valence shell :  2 s   2.000
  | Found free-atom valence shell :  2 p   4.000
  | Found free-ion valence shell :  2 s   1.000
  | Found free-ion valence shell :  2 p   3.000
  | Found hydrogenic basis function :  2 p   1.800
  | Found hydrogenic basis function :  3 d   7.600
  | Found hydrogenic basis function :  3 s   6.400
  Species O                   : Missing cutoff potential type.
  Defaulting to exp(1/x)/(1-x)^2 type cutoff potential.
  Species O : No 'logarithmic' tag. Using default grid for free atom:
  | Default logarithmic grid data [bohr] : 0.1000E-03 0.1000E+03 0.1012E+01
  Species O : On-site basis accuracy parameter (for Gram-Schmidt orthonormalisation) not specified.
  Using default value basis_acc =  0.1000000E-03.
  Species O                   : Using default innermost maximum threshold i_radial=  2 for radial functions.
  Species O                   : Default cutoff onset for free atom density etc. : 0.35000000E+01 AA.
  Species O                   : Basic radial grid will be enhanced according to radial_multiplier =   1, to contain    36 grid points.
 
  Reading configuration options for species S                   .
  | Found nuclear charge :  16.0000
  | Found atomic mass :    32.0650000000000      amu
  | Found l_max for Hartree potential  :   4
  | Found cutoff potl. onset [A], width [A], scale factor :    3.50000    1.50000    1.00000
  | Threshold for basis-dependent cutoff potential is   0.100000E-03
  | Found data for basic radial integration grid :    44 points, outermost radius =    5.000 A
  | Found multiplier for basic radial grid :   1
  | Found angular grid specification: user-specified.
  | Specified grid contains     4 separate shells.
  | Check grid settings after all constraints further below.
  | Found free-atom valence shell :  3 s   2.000
  | Found free-atom valence shell :  3 p   4.000
  | Found free-ion valence shell :  3 s   1.000
  | Found free-ion valence shell :  3 p   3.000
  | Found ionic basis function :  3 d , default cutoff radius.
  | Found hydrogenic basis function :  2 p   1.800
  | Found ionic basis function :  3 s , default cutoff radius.
  Species S                   : Missing cutoff potential type.
  Defaulting to exp(1/x)/(1-x)^2 type cutoff potential.
  Species S : No 'logarithmic' tag. Using default grid for free atom:
  | Default logarithmic grid data [bohr] : 0.1000E-03 0.1000E+03 0.1012E+01
  | Will include ionic basis functions of  2.0-fold positive S                    ion.
  Species S : On-site basis accuracy parameter (for Gram-Schmidt orthonormalisation) not specified.
  Using default value basis_acc =  0.1000000E-03.
  Species S                   : Using default innermost maximum threshold i_radial=  2 for radial functions.
  Species S                   : Default cutoff onset for free atom density etc. : 0.35000000E+01 AA.
  Species S                   : Basic radial grid will be enhanced according to radial_multiplier =   1, to contain    44 grid points.
 
  Finished reading input file 'control.in'. Consistency checks are next.
 
  MPI_IN_PLACE appears to work with this MPI implementation.
  | Keeping use_mpi_in_place .true. (see manual).
  Target number of points in a grid batch is not set. Defaulting to  100
  Method for grid partitioning is not set. Defaulting to parallel hash+maxmin partitioning.
  Batch size limit is not set. Defaulting to    200
  By default, will store active basis functions for each batch.
  If in need of memory, prune_basis_once .false. can be used to disable this option.
  communication_type for Hartree potential was not specified.
  Defaulting to calc_hartree .
  Pulay mixer: Number of initial linear mixing iterations not set.
  Defaulting to    0 iterations.
  Work space size for distributed Hartree potential not set.
  Defaulting to   0.200000E+03 MB.
  Algorithm-dependent basis array size parameters:
  | n_max_pulay                         :       10
  Presetting      1001 iterations before the initial mixing cycle
  is restarted anyway using the sc_init_iter criterion / keyword.
  Presetting a factor      1.000 between actual scf density residual
  and density convergence criterion sc_accuracy_rho below which sc_init_iter
  takes no effect.
  No maximum number of relaxation steps, defaulting to     1000
  Default initial Hessian is Lindh matrix (thres = 15.00) plus  0.200000E+01 eV/A^2 times unity.
  Maximum energy tolerance by which TRM/BFGS trajectory may increase over multiple steps:   0.300000E-02
  No trust radius initializer. Defaulting to   0.200000E+00 A.
  Unit cell relaxation: Unit cell will be relaxed fully.
  Unit cell relaxation: Analytical stress will be used.
  Analytical stress will be computed.
  Analytical stress calculation: Only the upper triangle is calculated.
                                 Final output is symmetrized.
  Analytical stress calculation: scf convergence accuracy of stress not set.
                                 Analytical stress self-consistency will not be checked explicitly.
                                 Be sure to set other criteria like sc_accuracy_rho tight enough.
  Handling of forces: Unphysical translation and rotation will be removed from forces.
  No accuracy limit for integral partition fn. given. Defaulting to  0.1000E-14.
  No threshold value for u(r) in integrations given. Defaulting to  0.1000E-05.
  No accuracy for occupation numbers given. Defaulting to  0.1000E-12.
  No threshold value for occupation numbers given. Defaulting to  0.0000E+00.
  No accuracy for fermi level given. Defaulting to  0.1000E-19.
  Maximum # of iterations to find E_F not set. Defaulting to  200.
  Preferred method for the eigenvalue solver ('KS_method') not specified in 'control.in'.
  Defaulting to serial version, LAPACK (via ELSI), since more k-points than CPUs available.
  Will not use alltoall communication since running on < 1024 CPUs.
  Threshold for basis singularities not set.
  Default threshold for basis singularities:  0.1000E-04
  partition_type (choice of integration weights) for integrals was not specified.
  | Using a version of the partition function of Stratmann and coworkers ('stratmann_sparse').
  | At each grid point, the set of atoms used to build the partition table is smoothly restricted to
  | only those atoms whose free-atom density would be non-zero at that grid point.
  Partitioning for Hartree potential was not defined. Using partition_type for integrals.
  | Adjusted default value of keyword multip_moments_threshold to:       0.10000000E-11
  | This value may affect high angular momentum components of the Hartree potential in periodic systems.
  Angular momentum expansion for Kerker preconditioner not set explicitly.
  | Using default value of   0
  No explicit requirement for turning off preconditioner.
  | By default, it will be turned off when the charge convergence reaches
  | sc_accuracy_rho  =   0.100000E-03
  | sc_accuracy_eev  =   0.100000E-01
  | sc_accuracy_etot =   0.100000E-03
  No special mixing parameter while Kerker preconditioner is on.
  Using default: charge_mix_param =     0.3000.
  No q(lm)/r^(l+1) cutoff set for long-range Hartree potential.
  | Using default value of  0.100000E-09 .
  | Verify using the multipole_threshold keyword.
  Defaulting to new monopole extrapolation.
  Density update method: automatic selection selected.
  Using density matrix based charge density update.
  Using density matrix based charge density update.
  Using packed matrix style: index .
  Geometry relaxation: A file "geometry.in.next_step" is written out by default after each step.
  | This file contains the geometry of the current relaxation step as well as
  | the current Hessian matrix needed to restart the relaxation algorithm.
  | If you do not want part or all of this information, use the keywords
  | "write_restart_geometry" or "hessian_to_restart_geometry" to switch the output off.
  Defaulting to use time-reversal symmetry for k-point grid.
  Using the following vdw_convergence_threshold for supercell sums
  over the Tkatchenko-Scheffler correction:  0.100000E-05 eV.
------------------------------------------------------------


------------------------------------------------------------
          Reading geometry description geometry.in.
------------------------------------------------------------
  Input structure read successfully.
  The structure contains       24 atoms,  and a total of         84.000 electrons.

  Input geometry:
  | Unit cell:
  |        6.17170500        0.00000000        0.00000000
  |       -3.08585300        5.34485300        0.00000000
  |        0.00000000        0.00000000        6.25587100
  | Atomic structure:
  |       Atom                x [A]            y [A]            z [A]
  |    1: Species C             0.23664000        4.94170000        0.61188000
  |    2: Species C             1.31211000        4.04753000        0.61188000
  |    3: Species C             1.07546000        2.66906000        0.61188000
  |    4: Species C            -0.23665000        2.18477000        0.61188000
  |    5: Species C            -1.31211000        3.07894000        0.61188000
  |    6: Species C            -1.07546000        4.45741000        0.61188000
  |    7: Species H             0.42131000        6.01737000        0.61188000
  |    8: Species H             2.33600000        4.42544000        0.61188000
  |    9: Species H             1.91469000        1.97130000        0.61188000
  |   10: Species H            -0.42131000        1.10910000        0.61188000
  |   11: Species H            -2.33600000        2.70103000        0.61188000
  |   12: Species H            -1.91469000        5.15517000        0.61188000
  |   13: Species C            -1.07546000        2.66906000        3.73981000
  |   14: Species C             0.23664000        2.18477000        3.73981000
  |   15: Species C             1.31211000        3.07894000        3.73981000
  |   16: Species C             1.07546000        4.45741000        3.73981000
  |   17: Species C            -0.23665000        4.94170000        3.73981000
  |   18: Species C            -1.31211000        4.04753000        3.73981000
  |   19: Species H            -1.91469000        1.97130000        3.73981000
  |   20: Species H             0.42131000        1.10910000        3.73981000
  |   21: Species H             2.33600000        2.70103000        3.73981000
  |   22: Species H             1.91469000        5.15517000        3.73981000
  |   23: Species H            -0.42131000        6.01737000        3.73981000
  |   24: Species H            -2.33600000        4.42544000        3.73981000

  Lattice parameters for 3D lattice (in Angstroms) :     6.171705    6.171705    6.255871
  Angle(s) between unit vectors (in degrees)       :    90.000000   90.000000  120.000005

  |

  | The smallest distance between any two atoms is         1.09140518 AA.
  |
  | The first atom of this pair is atom number                      4 .
  | The second atom of this pair is atom number                    10 .
  | Wigner-Seitz cell of the first atom image           0     0     0 .
  | (The Wigner-Seitz cell of the second atom is 0 0 0  by definition.)

  Symmetry information by spglib:
  | Precision set to  0.1E-04
  | Number of Operations  : 2
  | Space group           : 5
  | International         : C2   U
  | Schoenflies           : C2^3

  Quantities derived from the lattice vectors:
  | Reciprocal lattice vector 1:  1.018063  0.587779  0.000000
  | Reciprocal lattice vector 2: -0.000000  1.175558  0.000000
  | Reciprocal lattice vector 3:  0.000000  0.000000  1.004366
  | Unit cell volume                               :   0.206362E+03  A^3

  Range separation radius for Ewald summation (hartree_convergence_parameter):      2.79448233 bohr.

  Fractional coordinates:
                         L1                L2                L3
       atom_frac         0.50062867        0.92457173        0.09780892  C
       atom_frac         0.59123906        0.75727621        0.09780892  C
       atom_frac         0.42394166        0.49937014        0.09780892  C
       atom_frac         0.16603642        0.40876148        0.09780892  C
       atom_frac         0.07542765        0.57605700        0.09780892  C
       atom_frac         0.24272505        0.83396307        0.09780892  C
       atom_frac         0.63117744        1.12582516        0.09780892  H
       atom_frac         0.79249244        0.82798161        0.09780892  H
       atom_frac         0.49464789        0.36882212        0.09780892  H
       atom_frac         0.03548927        0.20750805        0.09780892  H
       atom_frac        -0.12582573        0.50535160        0.09780892  H
       atom_frac         0.17201883        0.96451109        0.09780892  H
       atom_frac         0.07542856        0.49937014        0.59780804  C
       atom_frac         0.24272350        0.40876148        0.59780804  C
       atom_frac         0.50062944        0.57605700        0.59780804  C
       atom_frac         0.59123815        0.83396307        0.59780804  C
       atom_frac         0.42394159        0.92457173        0.59780804  C
       atom_frac         0.16603727        0.75727621        0.59780804  C
       atom_frac        -0.12582571        0.36882212        0.59780804  H
       atom_frac         0.17201881        0.20750805        0.59780804  H
       atom_frac         0.63117740        0.50535160        0.59780804  H
       atom_frac         0.79249242        0.96451109        0.59780804  H
       atom_frac         0.49464791        1.12582516        0.59780804  H
       atom_frac         0.03548931        0.82798161        0.59780804  H

  Number of empty states per atom not set in control.in - providing a guess from actual geometry.
  | Total number of empty states used during s.c.f. cycle:       54
  If you use a very high smearing, use empty_states (per atom!) in control.in to increase this value.

  Structure-dependent array size parameters: 
  | Maximum number of distinct radial functions  :       29
  | Maximum number of basis functions            :      228
  | Number of Kohn-Sham states (occupied + empty):       96
------------------------------------------------------------

------------------------------------------------------------
          Preparing all fixed parts of the calculation.
------------------------------------------------------------
  Determining machine precision:
    2.225073858507201E-308
  Setting up grids for atomic and cluster calculations.

  Creating wave function, potential, and density for free atoms.

  Species: H

  List of occupied orbitals and eigenvalues:
    n    l              occ      energy [Ha]    energy [eV]
    1    0           1.0000        -0.237589        -6.4651


  Species: C

  List of occupied orbitals and eigenvalues:
    n    l              occ      energy [Ha]    energy [eV]
    1    0           2.0000       -10.038835      -273.1706
    2    0           2.0000        -0.502696       -13.6791
    2    1           2.0000        -0.191971        -5.2238


  Species: N

  List of occupied orbitals and eigenvalues:
    n    l              occ      energy [Ha]    energy [eV]
    1    0           2.0000       -14.128000      -384.4424
    2    0           2.0000        -0.681077       -18.5330
    2    1           3.0000        -0.259788        -7.0692


  Species: O

  List of occupied orbitals and eigenvalues:
    n    l              occ      energy [Ha]    energy [eV]
    1    0           2.0000       -18.898188      -514.2459
    2    0           2.0000        -0.878505       -23.9053
    2    1           4.0000        -0.331779        -9.0282


  Species: S

  List of occupied orbitals and eigenvalues:
    n    l              occ      energy [Ha]    energy [eV]
    1    0           2.0000       -88.105825     -2397.4815
    2    0           2.0000        -7.730144      -210.3479
    3    0           2.0000        -0.627748       -17.0819
    2    1           6.0000        -5.747971      -156.4103
    3    1           4.0000        -0.255786        -6.9603

  Creating fixed part of basis set: Ionic, confined, hydrogenic.
 
  H                    hydrogenic:
 
  List of hydrogenic basis orbitals: 
    n    l      effective z      eigenvalue [eV]  inner max. [A]     outer max. [A]     outer radius [A]   
    2    0         2.100000       -14.9728           0.193243           1.317208           4.583499
    2    1         3.500000       -41.6669           0.602369           0.602369           3.723403
 
 
  C                    hydrogenic:
 
  List of hydrogenic basis orbitals: 
    n    l      effective z      eigenvalue [eV]  inner max. [A]     outer max. [A]     outer radius [A]   
    2    1         1.700000        -9.7616           1.230570           1.230570           4.607917
    3    2         6.000000       -54.4224           0.792453           0.792453           3.883070
    2    0         4.900000       -81.6679           0.082559           0.562749           3.078220
 
 
  N                    hydrogenic:
 
  List of hydrogenic basis orbitals: 
    n    l      effective z      eigenvalue [eV]  inner max. [A]     outer max. [A]     outer radius [A]   
    2    1         1.800000       -10.9749           1.177451           1.177451           4.573712
    3    2         6.800000       -69.9026           0.704619           0.704619           3.538137
    3    0         5.800000       -50.8545           0.067388           1.191934           4.250239
 
 
  O                    hydrogenic:
 
  List of hydrogenic basis orbitals: 
    n    l      effective z      eigenvalue [eV]  inner max. [A]     outer max. [A]     outer radius [A]   
    2    1         1.800000       -10.9749           1.164242           1.164242           4.578029
    3    2         7.600000       -87.3180           0.624125           0.624125           3.251020
    3    0         6.400000       -61.9207           0.061167           1.081902           4.001998
 
 
  S                    ion:

  List of free ionic orbitals and eigenvalues:
    n    l      energy [Ha]    energy [eV]
    1    0       -89.127201     -2425.2745
    2    0        -8.724378      -237.4024
    3    0        -1.464668       -39.8556
    2    1        -6.744348      -183.5230
    3    1        -1.048520       -28.5317


  List of ionic basis orbitals and eigenvalues:
    n    l      energy [Ha]    energy [eV]    outer radius [A]
    3    2        -0.496135       -13.5005       4.539062
    3    0        -1.464653       -39.8552       3.642502

 
  S                    hydrogenic:
 
  List of hydrogenic basis orbitals: 
    n    l      effective z      eigenvalue [eV]  inner max. [A]     outer max. [A]     outer radius [A]   
    2    1         1.800000       -10.9749           1.168531           1.168531           4.594893
 

  Adding cutoff potential to free-atom effective potential.
  Creating atomic-like basis functions for current effective potential.

  Species H                   :

  List of atomic basis orbitals and eigenvalues:
    n    l      energy [Ha]    energy [eV]    outer radius [A]
    1    0        -0.237589        -6.4651       4.527807


  Species C                   :

  List of atomic basis orbitals and eigenvalues:
    n    l      energy [Ha]    energy [eV]    outer radius [A]
    1    0       -10.038835      -273.1706       1.934409
    2    0        -0.502696       -13.6791       4.496620
    2    1        -0.191971        -5.2238       4.551928


  Species N                   :

  List of atomic basis orbitals and eigenvalues:
    n    l      energy [Ha]    energy [eV]    outer radius [A]
    1    0       -14.128000      -384.4424       1.637919
    2    0        -0.681077       -18.5330       4.463241
    2    1        -0.259788        -7.0692       4.518138


  Species O                   :

  List of atomic basis orbitals and eigenvalues:
    n    l      energy [Ha]    energy [eV]    outer radius [A]
    1    0       -18.898188      -514.2459       1.415765
    2    0        -0.878505       -23.9053       4.413171
    2    1        -0.331779        -9.0282       4.522403


  Species S                   :

  List of atomic basis orbitals and eigenvalues:
    n    l      energy [Ha]    energy [eV]    outer radius [A]
    1    0       -88.105825     -2397.4815       0.682391
    2    0        -7.730144      -210.3479       2.317169
    3    0        -0.627748       -17.0819       4.483910
    2    1        -5.747971      -156.4103       2.555240
    3    1        -0.255786        -6.9603       4.539062

  Assembling full basis from fixed parts.
  | Species H :   atomic orbital   1 s accepted.
  | Species H :    hydro orbital   2 s accepted.
  | Species H :    hydro orbital   2 p accepted.
  | Species C :   atomic orbital   1 s accepted.
  | Species C :    hydro orbital   2 s accepted.
  | Species C :   atomic orbital   2 s accepted.
  | Species C :   atomic orbital   2 p accepted.
  | Species C :    hydro orbital   2 p accepted.
  | Species C :    hydro orbital   3 d accepted.
  | Species N :   atomic orbital   1 s accepted.
  | Species N :    hydro orbital   3 s accepted.
  | Species N :   atomic orbital   2 s accepted.
  | Species N :   atomic orbital   2 p accepted.
  | Species N :    hydro orbital   2 p accepted.
  | Species N :    hydro orbital   3 d accepted.
  | Species O :   atomic orbital   1 s accepted.
  | Species O :    hydro orbital   3 s accepted.
  | Species O :   atomic orbital   2 s accepted.
  | Species O :   atomic orbital   2 p accepted.
  | Species O :    hydro orbital   2 p accepted.
  | Species O :    hydro orbital   3 d accepted.
  | Species S :   atomic orbital   1 s accepted.
  | Species S :   atomic orbital   2 s accepted.
  | Species S :    ionic orbital   3 s accepted.
  | Species S :   atomic orbital   3 s accepted.
  | Species S :   atomic orbital   2 p accepted.
  | Species S :   atomic orbital   3 p accepted.
  | Species S :    hydro orbital   2 p accepted.
  | Species S :    ionic orbital   3 d accepted.
 
  Basis size parameters after reduction:
  | Total number of radial functions:       29
  | Total number of basis functions :      228
 
  Per-task memory consumption for arrays in subroutine allocate_ext:
  |           7.565172MB.
  Testing on-site integration grid accuracy.
  |  Species  Function  <phi|h_atom|phi> (log., in eV)  <phi|h_atom|phi> (rad., in eV)
           1        1                 -6.4663192853                 -6.4651273558
           1        2                 13.7111246313                 13.7170609718
           1        3                 25.2673269279                 25.2674696378
           2        4               -273.1705927641               -273.1705631568
           2        5                -10.7109323383                -10.7107120029
           2        6                 17.4381822266                 17.4352413244
           2        7                 -5.2255326521                 -5.2270484734
           2        8                  8.6835629259                  8.6603288385
           2        9                 27.4952418996                 27.4953360207
           3       10               -384.4424306495               -384.4423701208
           3       11                 12.5842251816                 12.5842222903
           3       12                -15.7264628251                -15.7264433455
           3       13                 -7.0696854293                 -7.0701769954
           3       14                  8.8090390882                  8.7901077751
           3       15                 35.9586762123                 35.9588528632
           4       16               -514.2458688638               -514.2457643834
           4       17                 15.1795651126                 15.1795290741
           4       18                -21.5359799773                -21.5360846186
           4       19                 -9.0283069236                 -9.0284644067
           4       20                  8.3027758564                  8.2834874195
           4       21                 45.8339351984                 45.8338762259
           5       22              -2397.4814915323              -2397.4804563634
           5       23               -210.3479335736               -210.3479265952
           5       24                -16.8079362322                -16.8079092816
           5       25                  7.5772439785                  7.5675998324
           5       26               -156.4102581151               -156.4102580951
           5       27                 -6.9617737483                 -6.9640288036
           5       28                  7.5696988470                  7.5151244831 ***
           5       29                  6.0973034823                  6.0928113248
 * Note: Onsite integrals marked "***" above are less accurate than
 * onsite_accuracy_threshold =    0.03000 eV. Usually, this is harmless.
 * When in doubt, tighten the "radial" and/or "radial_multiplier" flags to check.

  Preparing densities etc. for the partition functions (integrals / Hartree potential).

  Preparations completed.
  max(cpu_time)          :      0.321 s.
  Wall clock time (cpu1) :      0.319 s.
------------------------------------------------------------

------------------------------------------------------------
          Begin self-consistency loop: Initialization.

          Date     :  20191122, Time     :  151721.011
------------------------------------------------------------

  Initializing index lists of integration centers etc. from given atomic structure:
  Mapping all atomic coordinates to central unit cell.

  Initializing the k-points
          Using symmetry for reducing the k-points
  | k-points reduced from:       27 to       14
  | Number of k-points                             :        14
  The eigenvectors in the calculations are COMPLEX.
  | K-points in task   0:         3
  | K-points in task   1:         4
  | K-points in task   2:         4
  | K-points in task   3:         3
  | Number of basis functions in the Hamiltonian integrals :      2846
  | Number of basis functions in a single unit cell        :       228
  | Number of centers in hartree potential         :      1644
  | Number of centers in hartree multipole         :      1194
  | Number of centers in electron density summation:       882
  | Number of centers in basis integrals           :       972
  | Number of centers in integrals                 :       384
  | Number of centers in hamiltonian               :       882
  | Consuming         14 KiB for k_phase.
  | Number of super-cells (origin) [n_cells]                     :         343
  | Number of super-cells (after PM_index) [n_cells]             :          66
  | Number of super-cells in hamiltonian [n_cells_in_hamiltonian]:          66
  | Size of matrix packed + index [n_hamiltonian_matrix_size] :      324415

  Initializing relaxation algorithms.
  Finished initialization of distributed Hessian storage.
  | Global dimension:        81
  | BLACS block size:        21
  | Number of workers:        4

  | Estimated reciprocal-space cutoff momentum G_max:         3.39325959 bohr^-1 .
  | Reciprocal lattice points for long-range Hartree potential:     900
  Partitioning the integration grid into batches with parallel hashing+maxmin method.
  | Number of batches:     2042
  | Maximal batch size:     124
  | Minimal batch size:      57
  | Average batch size:      61.681
  | Standard deviation of batch sizes:       3.933

  Integration load balanced across     4 MPI tasks.
  Work distribution over tasks is as follows:
  Task     0 has      31517 integration points.
  Task     1 has      31492 integration points.
  Task     2 has      31491 integration points.
  Task     3 has      31452 integration points.
  Initializing partition tables, free-atom densities, potentials, etc. across the integration grid (initialize_grid_storage).
  | initialize_grid_storage: Actual outermost partition radius vs. multipole_radius_free
  | (-- VB: in principle, multipole_radius_free should be larger, hence this output)
  | Species        1: Confinement radius =              4.999999999999999 AA, multipole_radius_free =              5.054417573612229 AA.
  | Species        1: outer_partition_radius set to              5.054417573612229 AA .
  | Species        2: Confinement radius =              4.999999999999999 AA, multipole_radius_free =              5.019602836301480 AA.
  | Species        2: outer_partition_radius set to              5.019602836301480 AA .
  | Species        3: Confinement radius =              4.999999999999999 AA, multipole_radius_free =              5.043624274424571 AA.
  | Species        3: outer_partition_radius set to              5.043624274424571 AA .
  | Species        4: Confinement radius =              4.999999999999999 AA, multipole_radius_free =              5.048384829883283 AA.
  | Species        4: outer_partition_radius set to              5.048384829883283 AA .
  | Species        5: Confinement radius =              4.999999999999999 AA, multipole_radius_free =              5.005414751018925 AA.
  | Species        5: outer_partition_radius set to              5.005414751018925 AA .
  | The sparse table of interatomic distances needs       3311.00 kbyte instead of      7558.27 kbyte of memory.
  | Net number of integration points:   125952
  | of which are non-zero points    :    98356
  | Numerical average free-atom electrostatic potential    :     -8.86034068 eV
  Renormalizing the initial density to the exact electron count on the 3D integration grid.
  | Initial density: Formal number of electrons (from input files) :      84.0000000000
  | Integrated number of electrons on 3D grid     :      84.0069946963
  | Charge integration error                      :       0.0069946963
  | Normalization factor for density and gradient :       0.9999167367
  Obtaining max. number of non-zero basis functions in each batch (get_n_compute_maxes).
  | Maximal number of non-zero basis functions:      504 in task     0
  | Maximal number of non-zero basis functions:      504 in task     1
  | Maximal number of non-zero basis functions:      511 in task     2
  | Maximal number of non-zero basis functions:      503 in task     3
  Allocating        1.002 MB for KS_eigenvector_complex
  Integrating Hamiltonian matrix: batch-based integration.
  Time summed over all CPUs for integration: real work        5.624 s, elapsed        5.692 s
  Integrating overlap matrix.
  Time summed over all CPUs for integration: real work        3.601 s, elapsed        3.732 s
  Decreasing sparse matrix size:
   Tolerance:  9.999999824516700E-014
   Hamiltonian matrix
  | Array has   283152 nonzero elements out of   324415 elements
  | Sparsity factor is 0.127
   Overlap matrix
  | Array has   262812 nonzero elements out of   324415 elements
  | Sparsity factor is 0.190
  New size of hamiltonian matrix:      283181

  Updating Kohn-Sham eigenvalues and eigenvectors using ELSI and the ELPA eigensolver.
  Singularity check in k-point 4, task 0 (analysis for other k-points/tasks may follow below):
  Overlap matrix is not singular
  | Lowest and highest eigenvalues :  0.8684E-03,  0.8529E+01
  Finished singularity check of overlap matrix
  | Time :     0.006 s
  Finished Cholesky decomposition
  | Time :     0.001 s
  Finished transformation to standard eigenproblem
  | Time :     0.003 s
  Starting LAPACK eigensolver
  Finished solving standard eigenproblem
  | Time :     0.007 s
  Finished back-transformation of eigenvectors
  | Time :     0.001 s

  Obtaining occupation numbers and chemical potential using ELSI.
  | Chemical potential (Fermi level):    -8.91974388 eV
  Writing Kohn-Sham eigenvalues.
  K-point:       1 at    0.000000    0.000000    0.000000 (in units of recip. lattice)

  State    Occupation    Eigenvalue [Ha]    Eigenvalue [eV]
      1       2.00000         -10.154849         -276.32751
      2       2.00000         -10.154849         -276.32750
      3       2.00000         -10.154655         -276.32223
      4       2.00000         -10.154655         -276.32222
      5       2.00000         -10.154654         -276.32220
      6       2.00000         -10.154654         -276.32219
      7       2.00000         -10.154266         -276.31164
      8       2.00000         -10.154266         -276.31164
      9       2.00000         -10.154265         -276.31161
     10       2.00000         -10.154265         -276.31160
     11       2.00000         -10.154071         -276.30633
     12       2.00000         -10.154071         -276.30633
     13       2.00000          -0.988651          -26.90257
     14       2.00000          -0.975698          -26.55010
     15       2.00000          -0.878345          -23.90099
     16       2.00000          -0.878342          -23.90091
     17       2.00000          -0.866809          -23.58707
     18       2.00000          -0.866806          -23.58699
     19       2.00000          -0.744842          -20.26818
     20       2.00000          -0.744840          -20.26811
     21       2.00000          -0.735107          -20.00328
     22       2.00000          -0.735105          -20.00323
     23       2.00000          -0.677267          -18.42937
     24       2.00000          -0.665706          -18.11478
     25       2.00000          -0.616533          -16.77673
     26       2.00000          -0.614443          -16.71985
     27       2.00000          -0.593135          -16.14001
     28       2.00000          -0.588926          -16.02550
     29       2.00000          -0.547220          -14.89062
     30       2.00000          -0.547219          -14.89060
     31       2.00000          -0.542104          -14.75140
     32       2.00000          -0.542102          -14.75136
     33       2.00000          -0.534733          -14.55084
     34       2.00000          -0.488029          -13.27996
     35       2.00000          -0.488029          -13.27994
     36       2.00000          -0.486547          -13.23963
     37       2.00000          -0.486547          -13.23962
     38       2.00000          -0.453158          -12.33107
     39       2.00000          -0.427750          -11.63966
     40       2.00000          -0.427747          -11.63959
     41       2.00000          -0.358282           -9.74934
     42       2.00000          -0.358281           -9.74931
     43       0.00000          -0.240680           -6.54924
     44       0.00000          -0.240678           -6.54919
     45       0.00000          -0.172457           -4.69279
     46       0.00000          -0.172457           -4.69278
     47       0.00000          -0.146211           -3.97862
     48       0.00000          -0.104775           -2.85106
     49       0.00000          -0.094137           -2.56160
     50       0.00000          -0.051898           -1.41222
     51       0.00000          -0.049611           -1.34999
     52       0.00000          -0.023612           -0.64252
     53       0.00000          -0.023596           -0.64208
     54       0.00000          -0.006128           -0.16676
     55       0.00000           0.013530            0.36818
     56       0.00000           0.013545            0.36857
     57       0.00000           0.052606            1.43148
     58       0.00000           0.052624            1.43196
     59       0.00000           0.064210            1.74725
     60       0.00000           0.064218            1.74746
     61       0.00000           0.092204            2.50899
     62       0.00000           0.146836            3.99561
     63       0.00000           0.186728            5.08114
     64       0.00000           0.186764            5.08212
     65       0.00000           0.187796            5.11019
     66       0.00000           0.187869            5.11217
     67       0.00000           0.222640            6.05834
     68       0.00000           0.222641            6.05838
     69       0.00000           0.243521            6.62655
     70       0.00000           0.274461            7.46845
     71       0.00000           0.274467            7.46861
     72       0.00000           0.292607            7.96223
     73       0.00000           0.292631            7.96290
     74       0.00000           0.292872            7.96946
     75       0.00000           0.312922            8.51504
     76       0.00000           0.312945            8.51566
     77       0.00000           0.324839            8.83932
     78       0.00000           0.330796            9.00143
     79       0.00000           0.334244            9.09524
     80       0.00000           0.334310            9.09704
     81       0.00000           0.346629            9.43225
     82       0.00000           0.352297            9.58649
     83       0.00000           0.352309            9.58680
     84       0.00000           0.372072           10.12459
     85       0.00000           0.407083           11.07730
     86       0.00000           0.414025           11.26618
     87       0.00000           0.460058           12.51881
     88       0.00000           0.468725           12.75467
     89       0.00000           0.468789           12.75640
     90       0.00000           0.471797           12.83824
     91       0.00000           0.504320           13.72326
     92       0.00000           0.599882           16.32361
     93       0.00000           0.675056           18.36922
     94       0.00000           0.680913           18.52860
     95       0.00000           0.688689           18.74019
     96       0.00000           0.688797           18.74313

  What follows are estimated values for band gap, HOMO, LUMO, etc.
  | They are estimated on a discrete k-point grid and not necessarily exact.
  | For converged numbers, create a DOS and/or band structure plot on a denser k-grid.

  Highest occupied state (VBM) at     -9.74931326 eV (relative to internal zero)
  | Occupation number:      2.00000000
  | K-point:       1 at    0.000000    0.000000    0.000000 (in units of recip. lattice)

  Lowest unoccupied state (CBM) at    -6.62517157 eV (relative to internal zero)
  | Occupation number:      0.00000000
  | K-point:      13 at    0.666667    0.333333    0.000000 (in units of recip. lattice)

  ESTIMATED overall HOMO-LUMO gap:      3.12414169 eV between HOMO at k-point 1 and LUMO at k-point 13
  | This appears to be an indirect band gap.
  | Smallest direct gap :      3.13529434 eV for k_point 13 at    0.666667    0.333333    0.000000 (in units of recip. lattice)
  The gap value is above 0.2 eV. Unless you are using a very sparse k-point grid,
  this system is most likely an insulator or a semiconductor.
  Calculating total energy contributions from superposition of free atom densities.

  Total energy components:
  | Sum of eigenvalues            :        -281.50352003 Ha       -7660.10052171 eV
  | XC energy correction          :         -67.62456028 Ha       -1840.15791138 eV
  | XC potential correction       :          86.89242503 Ha        2364.46318761 eV
  | Free-atom electrostatic energy:        -202.21840182 Ha       -5502.64268490 eV
  | Hartree energy correction     :           0.00000000 Ha           0.00000000 eV
  | vdW energy correction         :           0.00000000 Ha           0.00000000 eV
  | Entropy correction            :          -0.00000000 Ha          -0.00000000 eV
  | ---------------------------
  | Total energy                  :        -464.45405710 Ha      -12638.43793039 eV
  | Total energy, T -> 0          :        -464.45405710 Ha      -12638.43793039 eV  <-- do not rely on this value for anything but (periodic) metals
  | Electronic free energy        :        -464.45405710 Ha      -12638.43793039 eV

  Derived energy quantities:
  | Kinetic energy                :         458.95126736 Ha       12488.69940291 eV
  | Electrostatic energy          :        -855.78076418 Ha      -23286.97942191 eV
  | Energy correction for multipole
  | error in Hartree potential    :           0.00000000 Ha           0.00000000 eV
  | Sum of eigenvalues per atom                           :        -319.17085507 eV
  | Total energy (T->0) per atom                          :        -526.60158043 eV  <-- do not rely on this value for anything but (periodic) metals
  | Electronic free energy per atom                       :        -526.60158043 eV
  Initialize hartree_potential_storage
  Max. number of atoms included in rho_multipole:           24

  End scf initialization - timings             :  max(cpu_time)    wall_clock(cpu1)
  | Time for scf. initialization               :        7.556 s           7.555 s
  | Boundary condition initialization          :        0.168 s           0.168 s
  | Relaxation initialization                  :        0.010 s           0.009 s
  | Integration                                :        2.366 s           2.366 s
  | Solution of K.-S. eqns.                    :        0.081 s           0.081 s
  | Grid partitioning                          :        0.234 s           0.233 s
  | Preloading free-atom quantities on grid    :        0.006 s           0.006 s
  | Free-atom superposition energy             :        0.390 s           0.389 s
  | Total energy evaluation                    :        0.000 s           0.000 s

  Partial memory accounting:
  | Current value for overall tracked memory usage:
  |   Minimum:        6.441 MB (on task 3)
  |   Maximum:        6.777 MB (on task 1)
  |   Average:        6.609 MB
  | Peak value for overall tracked memory usage:
  |   Minimum:       10.597 MB (on task 3 after allocating wave)
  |   Maximum:       11.017 MB (on task 2 after allocating wave)
  |   Average:       10.792 MB
  | Largest tracked array allocation so far:
  |   Minimum:        2.475 MB (overlap_matrix on task 0)
  |   Maximum:        2.475 MB (overlap_matrix on task 0)
  |   Average:        2.475 MB
  Note:  These values currently only include a subset of arrays which are explicitly tracked.
  The "true" memory usage will be greater.
------------------------------------------------------------

------------------------------------------------------------
          Begin self-consistency iteration #    1

  Date     :  20191122, Time     :  151728.567
------------------------------------------------------------
  Evaluating new KS density using the density matrix
  Evaluating density matrix
  Time summed over all CPUs for getting density from density matrix: real work        8.080 s, elapsed        8.159 s
  Integration grid: deviation in total charge (<rho> - N_e) =   4.263256E-14
  Pulay mixing of updated and previous charge densities.

  Evaluating partitioned Hartree potential by multipole expansion.
  | Analytical far-field extrapolation by fixed multipoles:
  | Hartree multipole sum: apparent total charge =   0.981340E-02
  Summing up the Hartree potential.
  Time summed over all CPUs for potential: real work        7.978 s, elapsed        8.052 s
  | RMS charge density error from multipole expansion :   0.147283E-01
  | Average real-space part of the electrostatic potential :      0.13930523 eV

  Integrating Hamiltonian matrix: batch-based integration.
  Time summed over all CPUs for integration: real work        5.605 s, elapsed        5.657 s

  Updating Kohn-Sham eigenvalues and eigenvectors using ELSI and the ELPA eigensolver.
  Singularity check in k-point 4, task 0:
  Finished Cholesky decomposition
  | Time :     0.001 s
  Finished transformation to standard eigenproblem
  | Time :     0.002 s
  Starting LAPACK eigensolver
  Finished solving standard eigenproblem
  | Time :     0.008 s
  Finished back-transformation of eigenvectors
  | Time :     0.000 s

  Obtaining occupation numbers and chemical potential using ELSI.
  | Chemical potential (Fermi level):    -6.91258812 eV
  Writing Kohn-Sham eigenvalues.
  K-point:       1 at    0.000000    0.000000    0.000000 (in units of recip. lattice)

  State    Occupation    Eigenvalue [Ha]    Eigenvalue [eV]
      1       2.00000         -10.062594         -273.81712
      2       2.00000         -10.062594         -273.81711
      3       2.00000         -10.062400         -273.81184
      4       2.00000         -10.062400         -273.81184
      5       2.00000         -10.062396         -273.81174
      6       2.00000         -10.062396         -273.81173
      7       2.00000         -10.062008         -273.80118
      8       2.00000         -10.062008         -273.80117
      9       2.00000         -10.062005         -273.80108
     10       2.00000         -10.062004         -273.80107
     11       2.00000         -10.061811         -273.79580
     12       2.00000         -10.061811         -273.79580
     13       2.00000          -0.933940          -25.41379
     14       2.00000          -0.919192          -25.01249
     15       2.00000          -0.826596          -22.49283
     16       2.00000          -0.826595          -22.49279
     17       2.00000          -0.813497          -22.13639
     18       2.00000          -0.813496          -22.13635
     19       2.00000          -0.700052          -19.04938
     20       2.00000          -0.700048          -19.04928
     21       2.00000          -0.688746          -18.74175
     22       2.00000          -0.688743          -18.74166
     23       2.00000          -0.645180          -17.55625
     24       2.00000          -0.632204          -17.20314
     25       2.00000          -0.579700          -15.77444
     26       2.00000          -0.567686          -15.44751
     27       2.00000          -0.552299          -15.02883
     28       2.00000          -0.547572          -14.90019
     29       2.00000          -0.505334          -13.75083
     30       2.00000          -0.505333          -13.75080
     31       2.00000          -0.499841          -13.60135
     32       2.00000          -0.499840          -13.60135
     33       2.00000          -0.497518          -13.53815
     34       2.00000          -0.446057          -12.13784
     35       2.00000          -0.446055          -12.13777
     36       2.00000          -0.444853          -12.10507
     37       2.00000          -0.444851          -12.10501
     38       2.00000          -0.407656          -11.09288
     39       2.00000          -0.389489          -10.59853
     40       2.00000          -0.389487          -10.59849
     41       2.00000          -0.312382           -8.50035
     42       2.00000          -0.312379           -8.50025
     43       0.00000          -0.206343           -5.61487
     44       0.00000          -0.206338           -5.61475
     45       0.00000          -0.134761           -3.66703
     46       0.00000          -0.127342           -3.46516
     47       0.00000          -0.127341           -3.46513
     48       0.00000          -0.091155           -2.48045
     49       0.00000          -0.061393           -1.67058
     50       0.00000          -0.044218           -1.20323
     51       0.00000          -0.007826           -0.21297
     52       0.00000          -0.007805           -0.21240
     53       0.00000          -0.005352           -0.14564
     54       0.00000           0.004403            0.11982
     55       0.00000           0.037165            1.01130
     56       0.00000           0.037178            1.01166
     57       0.00000           0.081568            2.21958
     58       0.00000           0.081589            2.22016
     59       0.00000           0.093053            2.53209
     60       0.00000           0.093066            2.53246
     61       0.00000           0.119698            3.25714
     62       0.00000           0.166843            4.54003
     63       0.00000           0.211085            5.74391
     64       0.00000           0.211155            5.74583
     65       0.00000           0.232446            6.32519
     66       0.00000           0.232489            6.32634
     67       0.00000           0.261880            7.12612
     68       0.00000           0.261883            7.12620
     69       0.00000           0.263689            7.17534
     70       0.00000           0.311900            8.48724
     71       0.00000           0.311906            8.48740
     72       0.00000           0.325231            8.85000
     73       0.00000           0.325255            8.85063
     74       0.00000           0.332790            9.05568
     75       0.00000           0.332804            9.05605
     76       0.00000           0.334445            9.10072
     77       0.00000           0.358854            9.76492
     78       0.00000           0.358928            9.76693
     79       0.00000           0.370549           10.08314
     80       0.00000           0.378372           10.29604
     81       0.00000           0.378685           10.30455
     82       0.00000           0.378692           10.30474
     83       0.00000           0.395275           10.75599
     84       0.00000           0.401753           10.93225
     85       0.00000           0.441428           12.01185
     86       0.00000           0.446216           12.14215
     87       0.00000           0.491976           13.38734
     88       0.00000           0.494565           13.45779
     89       0.00000           0.499714           13.59790
     90       0.00000           0.499772           13.59950
     91       0.00000           0.544093           14.80552
     92       0.00000           0.636950           17.33229
     93       0.00000           0.692249           18.83706
     94       0.00000           0.714072           19.43088
     95       0.00000           0.714092           19.43143
     96       0.00000           0.714194           19.43421

  What follows are estimated values for band gap, HOMO, LUMO, etc.
  | They are estimated on a discrete k-point grid and not necessarily exact.
  | For converged numbers, create a DOS and/or band structure plot on a denser k-grid.

  Highest occupied state (VBM) at     -8.50025342 eV (relative to internal zero)
  | Occupation number:      2.00000000
  | K-point:       1 at    0.000000    0.000000    0.000000 (in units of recip. lattice)

  Lowest unoccupied state (CBM) at    -5.72822807 eV (relative to internal zero)
  | Occupation number:      0.00000000
  | K-point:      13 at    0.666667    0.333333    0.000000 (in units of recip. lattice)

  ESTIMATED overall HOMO-LUMO gap:      2.77202535 eV between HOMO at k-point 1 and LUMO at k-point 13
  | This appears to be an indirect band gap.
  | Smallest direct gap :      2.78602918 eV for k_point 13 at    0.666667    0.333333    0.000000 (in units of recip. lattice)
  The gap value is above 0.2 eV. Unless you are using a very sparse k-point grid,
  this system is most likely an insulator or a semiconductor.

  Total energy components:
  | Sum of eigenvalues            :        -276.66727354 Ha       -7528.49955881 eV
  | XC energy correction          :         -68.12488225 Ha       -1853.77236496 eV
  | XC potential correction       :          87.53117999 Ha        2381.84459442 eV
  | Free-atom electrostatic energy:        -202.21840182 Ha       -5502.64268490 eV
  | Hartree energy correction     :          -4.67356997 Ha        -127.17430943 eV
  | vdW energy correction         :           0.00000000 Ha           0.00000000 eV
  | Entropy correction            :          -0.00000000 Ha          -0.00000000 eV
  | ---------------------------
  | Total energy                  :        -464.15294759 Ha      -12630.24432368 eV
  | Total energy, T -> 0          :        -464.15294759 Ha      -12630.24432368 eV  <-- do not rely on this value for anything but (periodic) metals
  | Electronic free energy        :        -464.15294759 Ha      -12630.24432368 eV

  Derived energy quantities:
  | Kinetic energy                :         461.26547646 Ha       12551.67223653 eV
  | Electrostatic energy          :        -857.29354180 Ha      -23328.14419525 eV
  | Energy correction for multipole
  | error in Hartree potential    :           0.05133991 Ha           1.39702990 eV
  | Sum of eigenvalues per atom                           :        -313.68748162 eV
[...]
    vdW correction   :     0.1307366425E+01    0.1305398781E+01    0.2356741373E+01    0.4565458963E-03    0.7521992337E-09   -0.7240343330E-10
  -----------------------------------------------------------------------------------------------------------------------------------------------------------
  Sum of all contributions        :    -0.7203793144E-01   -0.4881506300E-01   -0.4206428542E-01    0.1709939571E-01    0.5139650388E-08    0.1219933121E-09

  +-------------------------------------------------------------------+
  |              Analytical stress tensor - Symmetrized               |
  |                  Cartesian components [eV/A**3]                   |
  +-------------------------------------------------------------------+
  |                x                y                z                |
  |                                                                   |
  |  x        -0.00026434       0.00006275       0.00000000           |
  |  y         0.00006275      -0.00017913       0.00000000           |
  |  z         0.00000000       0.00000000      -0.00015435           |
  |                                                                   |
  |  Pressure:       0.00019928   [eV/A**3]                           |
  |                                                                   |
  +-------------------------------------------------------------------+

 * Warning: Stress tensor is anisotropic. Be aware that pressure is an isotropic quantity.

  Timings for VdW correction (Tkatchenko-Scheffler 2009 or later):
  | CPU time:        3.309 s, Wall clock time:        3.309 s.
  Removing unitary transformations (pure translations, rotations) from forces on atoms.
  Atomic forces before filtering:
  | Net force on center of mass :   0.120769E-05  0.143140E-05 -0.220493E-08 eV/A
  Atomic forces after filtering:
  | Net force on center of mass :   0.139380E-17  0.313605E-17  0.340283E-21 eV/A

  Energy and forces in a compact form:
  | Total energy uncorrected      :         -0.126284420578839E+05 eV
  | Total energy corrected        :         -0.126284420578839E+05 eV  <-- do not rely on this value for anything but (periodic) metals
  | Electronic free energy        :         -0.126284420578839E+05 eV
  Total atomic forces (unitary forces cleaned) [eV/Ang]:
  |    1         -0.249098741010941E-02         -0.412834086347585E-02          0.503394791792404E-06
  |    2         -0.412097969182888E-02         -0.222183614968384E-02          0.504594461472126E-06
  |    3         -0.371606377316877E-02          0.434070365564115E-02          0.589934214597028E-06
  |    4          0.236727813992054E-02          0.416076785026094E-02          0.503069292860612E-06
  |    5          0.414985686874467E-02          0.210199486850830E-02          0.504959004243470E-06
  |    6          0.377044591596795E-02         -0.428188533980236E-02          0.590203073522113E-06
  |    7          0.158688995037263E-02         -0.254791251568961E-02          0.449906527491752E-06
  |    8         -0.990584558803888E-03         -0.346131713823762E-02          0.444129413764319E-06
  |    9         -0.244661846048044E-02         -0.134612244450682E-02          0.414368308635390E-06
  |   10         -0.152907848750418E-02          0.253015999694257E-02          0.450080767660413E-06
  |   11          0.971917694026705E-03          0.349123103843365E-02          0.444199858505721E-06
  |   12          0.243085516948160E-02          0.132909490608304E-02          0.415431682376595E-06
  |   13          0.261435807793922E-02          0.383392544803733E-02         -0.517150089877520E-06
  |   14         -0.488552407526708E-03          0.500801954467581E-02         -0.509491956088081E-06
  |   15         -0.537441380678288E-02          0.829791913207367E-03         -0.574838437226676E-06
  |   16         -0.258104445199510E-02         -0.388394620482027E-02         -0.516872610317451E-06
  |   17          0.423765431883633E-03         -0.502662308902951E-02         -0.508456728816527E-06
  |   18          0.541097168691047E-02         -0.713383491316562E-03         -0.574391172624656E-06
  |   19          0.336445409231651E-02         -0.265827191931220E-03         -0.435306284787419E-06
  |   20          0.271519424089961E-02          0.226446080639004E-02         -0.450692905373228E-06
  |   21         -0.447273072525578E-03          0.236599993795910E-02         -0.421140080674551E-06
  |   22         -0.336560692810643E-02          0.274417430009616E-03         -0.434976503357433E-06
  |   23         -0.268765631595622E-02         -0.225177736513647E-02         -0.450162047135938E-06
  |   24          0.432872096324968E-03         -0.240159560251879E-02         -0.420792580642467E-06

  ------------------------------------ 
  Start decomposition of the XC Energy 
  ------------------------------------ 
  X and C from original XC functional choice 
  Hartree-Fock Energy :          0.000000000 Ha              0.000000000 eV
  X Energy            :        -66.189328363 Ha          -1801.103263870 eV
  C Energy            :         -2.756519305 Ha            -75.008706691 eV
  Total XC Energy     :        -68.945847668 Ha          -1876.111970561 eV
  ------------------------------------ 
  LDA X and C from self-consistent density 
  X Energy LDA        :        -59.907930066 Ha          -1630.177719631 eV
  C Energy LDA        :         -5.342670714 Ha           -145.381467055 eV
  ------------------------------------ 
  End decomposition of the XC Energy 
  ------------------------------------ 

------------------------------------------------------------
  Relaxation / MD: End force evaluation.       :  max(cpu_time)    wall_clock(cpu1)
  | Time for this force evaluation             :       71.813 s          71.815 s

------------------------------------------------------------
  Geometry optimization: Attempting to predict improved coordinates.

  +-------------------------------------------------------------------+
  | Generalized derivatives on lattice vectors [eV/A]                 |
  +-------------------------------------------------------------------+
  |lattice_vector      -0.00945519      -0.00168406       0.00000000  |
  |lattice_vector       0.00300321      -0.00858113       0.00000000  |
  |lattice_vector       0.00000000       0.00000000      -0.00577377  |
  +-------------------------------------------------------------------+
  | Forces on lattice vectors cleaned from atomic contributions [eV/A]|
  +-------------------------------------------------------------------+
  |lattice_vector       0.00945519       0.00168406      -0.00000000  |
  |lattice_vector      -0.00300321       0.00858113      -0.00000000  |
  |lattice_vector      -0.00000000      -0.00000000       0.00577377  |
  +-------------------------------------------------------------------+
  Removing unitary transformations (pure translations, rotations) from forces on atoms.
  Atomic forces before filtering:
  | Net force on center of mass :   0.139380E-17  0.313605E-17  0.340283E-21 eV/A
  Atomic forces after filtering:
  | Net force on center of mass :   0.609787E-18  0.243915E-17  0.340283E-21 eV/A
  Net remaining forces (excluding translations, rotations) in present geometry:
  || Forces on atoms   || =   0.541097E-02 eV/A.
  || Forces on lattice || =   0.945519E-02 eV/A^3.
  Maximum force component is  0.945519E-02 eV/A.
  Present geometry is converged.

------------------------------------------------------------
  Final atomic structure:
                         x [A]             y [A]             z [A]
  lattice_vector         6.57603956       -0.00151113       -0.00000000
  lattice_vector        -3.28322951        5.68894853       -0.00000001
  lattice_vector         0.00000000       -0.00000000        7.28541228

            atom         0.24931074        5.16640675        0.71257364  C
            atom         1.31637516        4.26611093        0.71257364  C
            atom         1.07023272        2.89179546        0.71257364  C
            atom        -0.24298653        2.41772552        0.71257364  C
            atom        -1.31005216        3.31802346        0.71257364  C
            atom        -1.06391035        4.69233642        0.71257364  C
            atom         0.44269532        6.23973916        0.71257329  H
            atom         2.34259136        4.63537579        0.71257329  H
            atom         1.90317920        2.18784240        0.71257329  H
            atom        -0.43638412        1.34439556        0.71257328  H
            atom        -2.33626557        2.94875105        0.71257329  H
            atom        -1.89685272        5.39629424        0.71257330  H
            atom        -1.06478936        2.89299534        4.35528273  C
            atom         0.24791245        2.41759728        4.35528273  C
            atom         1.31594697        3.31683179        4.35528273  C
            atom         1.07123901        4.69138522        4.35528273  C
            atom        -0.24146159        5.16678262        4.35528273  C
            atom        -1.30949697        4.26754662        4.35528273  C
            atom        -1.89845821        2.18981900        4.35528308  H
            atom         0.43996294        1.34405086        4.35528309  H
            atom         2.34181543        2.94667267        4.35528307  H
            atom         1.90490953        5.39455956        4.35528307  H
            atom        -0.43351907        6.24032768        4.35528309  H
            atom        -2.33536263        4.63771344        4.35528308  H

  Fractional coordinates:
                         L1                L2                L3
       atom_frac         0.49138958        0.90827844        0.09780828  C
       atom_frac         0.57465468        0.75004709        0.09780828  C
       atom_frac         0.41659132        0.50842875        0.09780828  C
       atom_frac         0.17525656        0.42503291        0.09780828  C
       atom_frac         0.09199146        0.58326463        0.09780828  C
       atom_frac         0.25005451        0.82488254        0.09780828  C
       atom_frac         0.61501086        1.09698101        0.09780823  H
       atom_frac         0.76314081        0.81500632        0.09780823  H
       atom_frac         0.48148369        0.38470554        0.09780823  H
       atom_frac         0.05163352        0.23633077        0.09780823  H
       atom_frac        -0.09649491        0.51830408        0.09780823  H
       atom_frac         0.18516318        0.94860659        0.09780823  H
       atom_frac         0.09198672        0.50855344        0.59780868  C
       atom_frac         0.24990484        0.42503020        0.59780869  C
       atom_frac         0.49126820        0.58316122        0.59780869  C
       atom_frac         0.57470029        0.82480157        0.59780868  C
       atom_frac         0.41678229        0.90832470        0.59780869  C
       atom_frac         0.17541868        0.75019341        0.59780869  C
       atom_frac        -0.09652390        0.38489945        0.59780873  H
       atom_frac         0.18488459        0.23630557        0.59780873  H
       atom_frac         0.61479976        0.51812768        0.59780873  H
       atom_frac         0.76321099        0.94845521        0.59780873  H
       atom_frac         0.48180137        1.09704908        0.59780873  H
       atom_frac         0.05188822        0.81522830        0.59780873  H
------------------------------------------------------------
  |------------------------------------------------------
  | Final ELSI Output
  |------------------------------------------------------
  |
  | Physical Properties
  |   Number of electrons       :        0.84000000E+02
  |   Number of states          :                    96
  |
  | Matrix Properties
  |   Matrix format             :           BLACS_DENSE
  |   Number of basis functions :                   228
  |
  | Computational Details
  |   Parallel mode             :           SINGLE_PROC
  |   Solver requested          :                  ELPA
  |   Number of ELSI calls      :                   444
  |
  |------------------------------------------------------
  | ELSI Project (c)  elsi-interchange.org
  |------------------------------------------------------

------------------------------------------------------------------------------
  Final output of selected total energy values:

  The following output summarizes some interesting total energy values
  at the end of a run (AFTER all relaxation, molecular dynamics, etc.).

  | Total energy of the DFT / Hartree-Fock s.c.f. calculation      :         -12628.442057884 eV
  | Final zero-broadening corrected energy (caution - metals only) :         -12628.442057884 eV
  | For reference only, the value of 1 Hartree used in FHI-aims is :             27.211384500 eV
  | For reference only, the overall average (free atom contribution
  | + realspace contribution) of the electrostatic potential after
  | s.c.f. convergence is                                          :             -6.269609376 eV

  Before relying on these values, please be sure to understand exactly which
  total energy value is referred to by a given number. Different objects may
  all carry the same name 'total energy'. Definitions:

  Total energy of the DFT / Hartree-Fock s.c.f. calculation:
  | Note that this energy does not include ANY quantities calculated after the
  | s.c.f. cycle, in particular not ANY RPA, MP2, etc. many-body perturbation terms.

  Final zero-broadening corrected energy:
  | For metallic systems only, a broadening of the occupation numbers at the Fermi
  | level can be extrapolated back to zero broadening by an electron-gas inspired
  | formula. For all systems that are not real metals, this value can be
  | meaningless and should be avoided.

------------------------------------------------------------------------------
  Methods described in the following list of references were used in this FHI-aims run.
  If you publish the results, please make sure to cite these reference if they apply.
  FHI-aims is an academic code, and for our developers (often, Ph.D. students
  and postdocs), scientific credit in the community is essential.
  Thank you for helping us!

  For any use of FHI-aims, please cite:

    Volker Blum, Ralf Gehrke, Felix Hanke, Paula Havu, Ville Havu,
    Xinguo Ren, Karsten Reuter, and Matthias Scheffler
    'Ab initio molecular simulations with numeric atom-centered orbitals'
    Computer Physics Communications 180, 2175-2196 (2009)
    http://dx.doi.org/10.1016/j.cpc.2009.06.022


  For the analytical stress tensor used in your run, please cite:

    Franz Knuth, Christian Carbogno, Viktor Atalla, Volker Blum, Matthias Scheffler
    'All-electron formalism for total energy strain derivatives and
    stress tensor components for numeric atom-centered orbitals'
    Computer Physics Communications 190, 33-50 (2015).
    http://dx.doi.org/10.1016/j.cpc.2015.01.003


  The provided symmetry information was generated with SPGlib:

    Atsushi Togo, Yusuke Seto, Dimitar Pashov
    SPGlib 1.7.3 obtained from http://spglib.sourceforge.net
    Copyright (C) 2008 Atsushi Togo


  The scalable eigensolver library ELPA was used in your run.
  ELPA is essential especially for large systems on hundreds or thousands of CPUs.
  For ELPA, please cite:

    Andreas Marek, Volker Blum, Rainer Johanni, Ville Havu, Bruno Lang,
    Thomas Auckenthaler, Alexander Heinecke, Hans-Joachim Bungartz, and Hermann Lederer,
    'The ELPA Library - Scalable Parallel Eigenvalue Solutions
    for Electronic Structure Theory and Computational Science'
    The Journal of Physics: Condensed Matter 26, 213201 (2014).
    http://dx.doi.org/10.1088/0953-8984/26/21/213201


  The ELSI infrastructure was used in your run to solve the Kohn-Sham electronic structure.
  Please check out http://elsi-interchange.org to learn more.
  If scalability is important for your project, please acknowledge ELSI by citing:

    V. W-z. Yu, F. Corsetti, A. Garcia, W. P. Huhn, M. Jacquelin, W. Jia,
    B. Lange, L. Lin, J. Lu, W. Mi, A. Seifitokaldani, A. Vazquez-Mayagoitia,
    C. Yang, H. Yang, and V. Blum
    'ELSI: A unified software interface for Kohn-Sham electronic structure solvers'
    Computer Physics Communications 222, 267-285 (2018).
    http://dx.doi.org/10.1016/j.cpc.2017.09.007


  For the real-space grid partitioning and parallelization used in this calculation, please cite:

    Ville Havu, Volker Blum, Paula Havu, and Matthias Scheffler,
    'Efficient O(N) integration for all-electron electronic structure calculation'
    'using numerically tabulated basis functions'
    Journal of Computational Physics 228, 8367-8379 (2009).
    http://dx.doi.org/10.1016/j.jcp.2009.08.008

  Of course, there are many other important community references, e.g., those cited in the
  above references. Our list is limited to references that describe implementations in the
  FHI-aims code. The reason is purely practical (length of this list) - please credit others as well.

------------------------------------------------------------
          Leaving FHI-aims.
          Date     :  20191122, Time     :  154518.123

          Computational steps:
          | Number of self-consistency cycles          :          147
          | Number of SCF (re)initializations          :           19
          | Number of relaxation steps                 :           18

          Detailed time accounting                     :  max(cpu_time)    wall_clock(cpu1)
          | Total time                                 :     1677.449 s        1677.458 s
          | Preparation time                           :        0.321 s           0.319 s
          | Boundary condition initalization           :        2.723 s           2.725 s
          | Grid partitioning                          :        3.926 s           3.926 s
          | Preloading free-atom quantities on grid    :       54.625 s          54.623 s
          | Free-atom superposition energy             :        6.237 s           6.236 s
          | Total time for integrations                :      178.248 s         178.234 s
          | Total time for solution of K.-S. equations :        8.126 s           8.128 s
          | Total time for EV reorthonormalization     :        0.194 s           0.142 s
          | Total time for density & force components  :      675.855 s         675.828 s
          | Total time for mixing & preconditioning    :      139.738 s         139.731 s
          | Total time for Hartree multipole update    :        0.950 s           0.955 s
          | Total time for Hartree multipole sum       :      531.815 s         531.781 s
          | Total time for total energy evaluation     :        0.048 s           0.043 s
          | Total time for vdW correction              :       69.157 s          69.159 s

          Partial memory accounting:
          | Residual value for overall tracked memory usage across tasks:     0.000000 MB (should be 0.000000 MB)
          | Peak values for overall tracked memory usage:
          |   Minimum:       18.535 MB (on task 0 after allocating d_wave)
          |   Maximum:       20.049 MB (on task 1 after allocating d_wave)
          |   Average:       19.094 MB
          | Largest tracked array allocation:
          |   Minimum:        2.861 MB (hessian_basis_wave on task 0)
          |   Maximum:        3.035 MB (hessian_basis_wave on task 1)
          |   Average:        2.917 MB
          Note:  These values currently only include a subset of arrays which are explicitly tracked.
          The "true" memory usage will be greater.

          Have a nice day.
------------------------------------------------------------
