#structure number = 0
#Z = 2 , spg = 7
#struct_id = target1_2mpc_e71ddfbfce
lattice_vector     2.978375     0.000000     0.000000 
lattice_vector     0.000000     8.657482     0.000000 
lattice_vector    -6.889482     0.000000    10.244589 
atom    -3.147656     5.586933     8.227022    O 
atom    -3.596681     4.458223     7.565581    C 
atom    -3.867970     4.616568     6.529663    H 
atom    -3.569538     3.420104     8.442172    C 
atom    -3.731025     2.004243     8.975829    C 
atom    -3.087433     1.247799     8.508481    H 
atom    -4.760094     1.623090     9.000387    H 
atom    -3.197860     2.558623    10.363379    C 
atom    -2.248340     2.120233    10.696886    H 
atom    -3.920969     2.499470    11.187063    H 
atom    -3.090292     3.916726     9.685280    C 
atom    -2.839049     5.243300     9.530564    C 
atom    -2.474894     6.059037    10.141941    H 
atom     0.297085     3.070549     3.104728    O 
atom    -0.151939     4.199259     2.443287    C 
atom    -0.423229     4.040914     1.407369    H 
atom    -0.124797     5.237378     3.319877    C 
atom    -0.286284     6.653239     3.853535    C 
atom     0.357308     7.409683     3.386187    H 
atom    -1.315354     7.034392     3.878093    H 
atom     0.246881     6.098859     5.241084    C 
atom     1.196402     6.537249     5.574592    H 
atom    -0.476228     6.158012     6.064770    H 
atom     0.354448     4.740756     4.562985    C 
atom     0.605692     3.414182     4.408270    C 
atom     0.969847     2.598445     5.019647    H 
#structure number = 11
#Z = 2 , spg = 2
lattice_vector    16.424110     0.000000     0.000000 
lattice_vector     7.615249     6.283021     0.000000 
lattice_vector    -0.581696    -2.374592     2.694315 
atom     5.359946     1.518514     1.063178    O 
atom     6.204575     0.899286     0.159700    C 
atom     5.860946    -0.063128    -0.197335    H 
atom     7.277412     1.710437    -0.034960    C 
atom     8.610001     2.199774    -0.582946    C 
atom     8.632769     2.395095    -1.662837    H 
atom     9.482720     1.588977    -0.318080    H 
atom     8.408307     3.490412     0.317313    C 
atom     8.317099     4.429737    -0.243359    H 
atom     9.163482     3.621800     1.102989    H 
atom     7.095855     2.867781     0.770781    C 
atom     5.917488     2.728751     1.433337    C 
atom     5.333574     3.300334     2.143377    H 
atom    18.097715     2.389915     1.631137    O 
atom    17.253088     3.009143     2.534615    C 
atom    17.596716     3.971557     2.891650    H 
atom    16.180248     2.197992     2.729276    C 
atom    14.847663     1.708656     3.277261    C 
atom    14.824894     1.513334     4.357152    H 
atom    13.974944     2.319452     3.012395    H 
atom    15.049355     0.418017     2.377002    C 
atom    15.140566    -0.521308     2.937674    H 
atom    14.294182     0.286629     1.591326    H 
atom    16.361809     1.040648     1.923535    C 
atom    17.540174     1.179679     1.260978    C 
atom    18.124086     0.608095     0.550939    H 
#structure number = 2
#Z = 2 , spg = 4
#struct_id = target1_2mpc_98b8c20123
lattice_vector    13.389227     0.000000     0.000000 
lattice_vector     0.000000     3.982959     0.000000 
lattice_vector    -2.880422     0.000000     2.931668 
atom    10.540637     1.862150     0.417927    O 
atom     9.294995     1.914671    -0.181017    C 
atom     9.220254     2.601539    -1.014338    H 
atom     8.477736     1.049363     0.474856    C 
atom     7.215549     0.278248     0.832335    C 
atom     6.854150    -0.417181     0.063829    H 
atom     6.371375     0.888308     1.178833    H 
atom     8.061198    -0.399519     1.990958    C 
atom     8.185326    -1.485666     1.891573    H 
atom     7.705840    -0.177608     3.005510    H 
atom     9.236110     0.440888     1.512284    C 
atom    10.493857     0.952817     1.458824    C 
atom    11.423651     0.832729     2.000010    H 
atom    -0.031832     3.853630     2.513741    O 
atom     1.213809     3.906150     3.112685    C 
atom     1.288551     4.593019     3.946006    H 
atom     2.031069     3.040843     2.456812    C 
atom     3.293257     2.269728     2.099333    C 
atom     3.654655     1.574298     2.867839    H 
atom     4.137430     2.879788     1.752835    H 
atom     2.447608     1.591961     0.940710    C 
atom     2.323480     0.505813     1.040095    H 
atom     2.802965     1.813872    -0.073842    H 
atom     1.272695     2.432367     1.419384    C 
atom     0.014948     2.944296     1.472844    C 
atom    -0.914846     2.824209     0.931658    H 
#structure number = 19
#Z = 2 , spg = 2
lattice_vector    20.654461     0.000000     0.000000 
lattice_vector    -1.339914     2.995874     0.000000 
lattice_vector    -5.161681    -1.479616     4.243973 
atom     6.672527     3.050075    -1.186421    O 
atom     5.612095     2.237540    -1.544726    C 
atom     5.668824     1.832164    -2.546849    H 
atom     4.758083     2.173318    -0.489558    C 
atom     3.537718     1.782494     0.331111    C 
atom     3.451635     0.714387     0.568952    H 
atom     2.573789     2.134254    -0.058722    H 
atom     4.143831     2.671693     1.496807    C 
atom     4.404967     2.116680     2.407176    H 
atom     3.530273     3.537711     1.776807    H 
atom     5.302106     2.969074     0.555641    C 
atom     6.472139     3.495383     0.107444    C 
atom     7.249502     4.143892     0.490800    H 
atom     7.480340    -1.533816     5.430394    O 
atom     8.540770    -0.721282     5.788698    C 
atom     8.484042    -0.315906     6.790822    H 
atom     9.394784    -0.657060     4.733531    C 
atom    10.615149    -0.266236     3.912862    C 
atom    10.701233     0.801871     3.675020    H 
atom    11.579077    -0.617996     4.302694    H 
atom    10.009034    -1.155436     2.747166    C 
atom     9.747899    -0.600422     1.836797    H 
atom    10.622593    -2.021453     2.467165    H 
atom     8.850760    -1.452816     3.688332    C 
atom     7.680727    -1.979125     4.136528    C 
atom     6.903364    -2.627634     3.753173    H 
#structure number = 4
#Z = 2 , spg = 6
#struct_id = target1_2mpc_11fbe0605a
lattice_vector     6.111002     0.000000     0.000000 
lattice_vector     0.000000    13.568390     0.000000 
lattice_vector    -0.812766     0.000000     2.914965 
atom     4.041029     1.595886     0.813486    O 
atom     5.333436     2.088384     0.797847    C 
atom     6.106727     1.333029     0.740779    H 
atom     5.266099     3.444224     0.861111    C 
atom     5.734990     4.890867     0.914935    C 
atom     6.264037     5.248707     0.022247    H 
atom     6.318904     5.165546     1.802888    H 
atom     4.202248     5.294989     0.980359    C 
atom     3.848398     5.887536     0.126732    H 
atom     3.902292     5.800181     1.907530    H 
atom     3.892345     3.806387     0.918251    C 
atom     3.161870     2.660806     0.888100    C 
atom     2.114997     2.385950     0.906268    H 
atom     4.041029    11.972504     0.813486    O 
atom     5.333436    11.480005     0.797847    C 
atom     6.106727    12.235361     0.740779    H 
atom     5.266099    10.124166     0.861111    C 
atom     5.734990     8.677523     0.914935    C 
atom     6.264037     8.319683     0.022247    H 
atom     6.318904     8.402844     1.802888    H 
atom     4.202248     8.273401     0.980359    C 
atom     3.848398     7.680854     0.126732    H 
atom     3.902292     7.768209     1.907530    H 
atom     3.892345     9.762003     0.918251    C 
atom     3.161870    10.907583     0.888100    C 
atom     2.114997    11.182440     0.906268    H 
#structure number = 5
#Z = 2 , spg = 4
#struct_id = target1_2mpc_01288d033a
lattice_vector     3.818675     0.000000     0.000000 
lattice_vector     0.000000    10.640268     0.000000 
lattice_vector    -3.661517     0.000000     5.032742 
atom    -0.102017     5.649336     0.894207    O 
atom    -1.018581     4.872230     0.209274    C 
atom    -1.401564     5.317086    -0.700245    H 
atom    -1.188241     3.715563     0.902221    C 
atom    -1.721916     2.335705     1.258192    C 
atom    -1.468422     1.535181     0.551273    H 
atom    -2.797005     2.286162     1.474042    H 
atom    -0.792040     2.401836     2.541879    C 
atom    -0.004161     1.638239     2.576032    H 
atom    -1.331686     2.393242     3.497676    H 
atom    -0.353719     3.774289     2.051896    C 
atom     0.300652     4.965093     2.026555    C 
atom     1.023638     5.487000     2.640333    H 
atom     0.259175    10.969470     4.138535    O 
atom     1.175739    10.192365     4.823468    C 
atom     1.558722    10.637220     5.732987    H 
atom     1.345399     9.035698     4.130521    C 
atom     1.879074     7.655840     3.774550    C 
atom     1.625580     6.855315     4.481469    H 
atom     2.954163     7.606297     3.558700    H 
atom     0.949198     7.721971     2.490862    C 
atom     0.161318     6.958374     2.456709    H 
atom     1.488844     7.713376     1.535066    H 
atom     0.510877     9.094424     2.980845    C 
atom    -0.143494    10.285228     3.006186    C 
atom    -0.866480    10.807134     2.392409    H 
#structure number = 6
#Z = 2 , spg = 4
#struct_id = target1_2mpc_eff97ae011
lattice_vector    15.570921     0.000000     0.000000 
lattice_vector     0.000000     5.006974     0.000000 
lattice_vector     4.941154     0.000000     3.478999 
atom    10.579365     0.479472    -0.701499    O 
atom    10.070323     0.950581     0.495182    C 
atom     9.022299     1.220246     0.468240    H 
atom    11.074881     0.941811     1.410402    C 
atom    11.788502     1.129220     2.741248    C 
atom    11.424545     0.500630     3.564196    H 
atom    11.861431     2.165254     3.096467    H 
atom    13.092465     0.583820     2.020750    C 
atom    13.481366    -0.357725     2.429713    H 
atom    13.916021     1.306794     1.958300    H 
atom    12.243109     0.451605     0.764984    C 
atom    11.916938     0.175623    -0.525095    C 
atom    12.417077    -0.204667    -1.406604    H 
atom     9.932710     2.982959     4.180498    O 
atom    10.441752     3.454068     2.983816    C 
atom    11.489777     3.723733     3.010758    H 
atom     9.437195     3.445298     2.068597    C 
atom     8.723573     3.632707     0.737750    C 
atom     9.087529     3.004117    -0.085197    H 
atom     8.650643     4.668740     0.382532    H 
atom     7.419610     3.087307     1.458249    C 
atom     7.030708     2.145762     1.049285    H 
atom     6.596054     3.810281     1.520699    H 
atom     8.268967     2.955092     2.714015    C 
atom     8.595138     2.679110     4.004094    C 
atom     8.094997     2.298820     4.885603    H 
#structure number = 5
#Z = 2 , spg = 2
lattice_vector     9.648392     0.000000     0.000000 
lattice_vector     2.768717     5.903782     0.000000 
lattice_vector     5.021316    -2.167038     4.585919 
atom     7.887149     2.122035    -1.315326    O 
atom     7.624522     2.295586     0.031530    C 
atom     7.613665     3.325986     0.363124    H 
atom     7.445433     1.067530     0.585287    C 
atom     7.175349     0.011433     1.647004    C 
atom     6.174609     0.040220     2.097032    H 
atom     7.920173    -0.051717     2.450815    H 
atom     7.351075    -1.066604     0.496416    C 
atom     6.452545    -1.660628     0.284794    H 
atom     8.199153    -1.749355     0.635900    H 
atom     7.601477     0.101512    -0.446259    C 
atom     7.871133     0.768616    -1.599132    C 
atom     8.066448     0.518566    -2.634094    H 
atom     9.551273     1.614710     5.901245    O 
atom     9.813902     1.441158     4.554389    C 
atom     9.824759     0.410758     4.222795    H 
atom     9.992990     2.669214     4.000632    C 
atom    10.263075     3.725311     2.938914    C 
atom    11.263814     3.696525     2.488887    H 
atom     9.518251     3.788461     2.135104    H 
atom    10.087349     4.803349     4.089502    C 
atom    10.985879     5.397373     4.301125    H 
atom     9.239271     5.486099     3.950019    H 
atom     9.836946     3.635232     5.032178    C 
atom     9.567290     2.968128     6.185051    C 
atom     9.371976     3.218179     7.220013    H 
#structure number = 8
#Z = 2 , spg = 7
#struct_id = target1_2mpc_4d7a8b25f0
lattice_vector     6.548507     0.000000     0.000000 
lattice_vector     0.000000    17.255463     0.000000 
lattice_vector    -2.285359     0.000000     2.873702 
atom     3.298091     2.659243    -0.337840    O 
atom     2.202024     1.848226    -0.570223    C 
atom     2.436842     0.872298    -0.975465    H 
atom     1.087380     2.535909    -0.207594    C 
atom    -0.385943     2.834949     0.027835    C 
atom    -0.879694     2.208574     0.781954    H 
atom    -1.012768     2.859997    -0.872902    H 
atom     0.075565     4.259373     0.552166    C 
atom    -0.154104     4.454928     1.607634    H 
atom    -0.283142     5.105304    -0.048307    H 
atom     1.501198     3.811946     0.263695    C 
atom     2.856230     3.865265     0.174813    C 
atom     3.638838     4.580125     0.394627    H 
atom     2.155412    14.596220     1.099011    O 
atom     1.059344    15.407236     0.866628    C 
atom     1.294163    16.383165     0.461386    H 
atom    -0.055299    14.719553     1.229257    C 
atom    -1.528622    14.420513     1.464686    C 
atom    -2.022373    15.046888     2.218805    H 
atom    -2.155447    14.395466     0.563949    H 
atom    -1.067114    12.996089     1.989017    C 
atom    -1.296783    12.800535     3.044485    H 
atom    -1.425821    12.150158     1.388544    H 
atom     0.358518    13.443517     1.700546    C 
atom     1.713552    13.390199     1.611664    C 
atom     2.496159    12.675338     1.831478    H 
#structure number = 9
#Z = 2 , spg = 3
#struct_id = target1_2mpc_a275d06647
lattice_vector    18.324909     0.000000     0.000000 
lattice_vector     0.000000     3.492786     0.000000 
lattice_vector    -4.470505     0.000000     4.566763 
atom     0.282055     1.343092     2.312584    O 
atom     0.881842     1.638944     3.523304    C 
atom     0.195313     1.899249     4.318738    H 
atom     2.225967     1.513647     3.366881    C 
atom     3.706132     1.522203     3.719820    C 
atom     4.016730     0.782165     4.468623    H 
atom     4.119453     2.499785     3.999753    H 
atom     3.978857     1.094829     2.216534    C 
atom     4.448594     0.109684     2.098899    H 
atom     4.547092     1.827688     1.629283    H 
atom     2.470210     1.129185     2.019972    C 
atom     1.267856     1.031146     1.394200    C 
atom     0.905533     0.781528     0.405144    H 
atom    13.572349     1.343092     2.254179    O 
atom    12.972563     1.638944     1.043459    C 
atom    13.659092     1.899249     0.248025    H 
atom    11.628438     1.513647     1.199882    C 
atom    10.148272     1.522203     0.846943    C 
atom     9.837675     0.782165     0.098140    H 
atom     9.734951     2.499785     0.567010    H 
atom     9.875547     1.094829     2.350229    C 
atom     9.405809     0.109684     2.467864    H 
atom     9.307312     1.827688     2.937480    H 
atom    11.384194     1.129185     2.546791    C 
atom    12.586548     1.031146     3.172563    C 
atom    12.948874     0.781528     4.161619    H 
#structure number = 10
#Z = 2 , spg = 6
#struct_id = target1_2mpc_c0af04c69c
lattice_vector     4.025329     0.000000     0.000000 
lattice_vector     0.000000    12.630772     0.000000 
lattice_vector     6.060465     0.000000     4.959170 
atom     3.155291    11.382212     1.347389    O 
atom     3.021742    10.982087     0.030127    C 
atom     2.478006    11.672849    -0.601535    H 
atom     3.639214     9.779298    -0.107226    C 
atom     4.149299     8.509955    -0.773647    C 
atom     4.901813     8.659119    -1.558700    H 
atom     3.374447     7.831985    -1.154203    H 
atom     4.742569     8.108090     0.641779    C 
atom     5.836605     8.023415     0.672080    H 
atom     4.307387     7.199808     1.078216    H 
atom     4.172163     9.419909     1.161014    C 
atom     3.864229    10.414075     2.034894    C 
atom     4.027327    10.628340     3.083373    H 
atom     3.155291     1.248560     1.347389    O 
atom     3.021742     1.648685     0.030127    C 
atom     2.478006     0.957923    -0.601535    H 
atom     3.639214     2.851474    -0.107226    C 
atom     4.149299     4.120816    -0.773647    C 
atom     4.901813     3.971653    -1.558700    H 
atom     3.374447     4.798786    -1.154203    H 
atom     4.742569     4.522681     0.641779    C 
atom     5.836605     4.607357     0.672080    H 
atom     4.307387     5.430964     1.078216    H 
atom     4.172163     3.210862     1.161014    C 
atom     3.864229     2.216696     2.034894    C 
atom     4.027327     2.002431     3.083373    H 
#structure number = 11
#Z = 2 , spg = 7
#struct_id = target1_2mpc_d4de4be98d
lattice_vector     6.048047     0.000000     0.000000 
lattice_vector     0.000000     6.706266     0.000000 
lattice_vector    -0.112791     0.000000     5.564010 
atom    -0.591461     1.571304    -0.116361    O 
atom     0.240500     2.670454    -0.229599    C 
atom    -0.196541     3.520521    -0.737710    H 
atom     1.426968     2.360163     0.355937    C 
atom     2.858358     2.525877     0.845008    C 
atom     3.006555     3.288679     1.620252    H 
atom     3.611872     2.671706     0.060270    H 
atom     2.752205     1.040494     1.392060    C 
atom     2.841447     0.946836     2.482136    H 
atom     3.442853     0.329615     0.920365    H 
atom     1.331235     1.029435     0.847493    C 
atom     0.089085     0.566941     0.547459    C 
atom    -0.474406    -0.346073     0.691334    H 
atom    -0.647856     5.134963     2.665644    O 
atom     0.184105     4.035812     2.552406    C 
atom    -0.252937     3.185745     2.044295    H 
atom     1.370572     4.346104     3.137942    C 
atom     2.801963     4.180390     3.627013    C 
atom     2.950160     3.417588     4.402257    H 
atom     3.555477     4.034561     2.842275    H 
atom     2.695810     5.665772     4.174065    C 
atom     2.785051     5.759431     5.264141    H 
atom     3.386458     6.376651     3.702369    H 
atom     1.274840     5.676831     3.629498    C 
atom     0.032690     6.139325     3.329463    C 
atom    -0.530802     7.052340     3.473339    H 
#structure number = 12
#Z = 2 , spg = 3
#struct_id = target1_2mpc_65090eabeb
lattice_vector    14.080049     0.000000     0.000000 
lattice_vector     0.000000     5.715148     0.000000 
lattice_vector     0.840953     0.000000     3.282533 
atom     6.243643     2.750651     3.419235    O 
atom     5.062947     3.435098     3.644186    C 
atom     5.175790     4.375371     4.168543    H 
atom     4.046580     2.701319     3.119395    C 
atom     2.628647     2.307766     2.731950    C 
atom     2.135597     2.971397     2.009919    H 
atom     1.942422     2.128592     3.569718    H 
atom     3.257605     0.995523     2.100027    C 
atom     3.125187     0.901632     1.014370    H 
atom     2.935843     0.060080     2.575689    H 
atom     4.610517     1.525987     2.551769    C 
atom     5.954452     1.577259     2.746878    C 
atom     6.814044     0.960200     2.518492    H 
atom     8.677359     2.750651    -0.136702    O 
atom     9.858053     3.435098    -0.361653    C 
atom     9.745212     4.375371    -0.886010    H 
atom    10.874422     2.701319     0.163138    C 
atom    12.292355     2.307766     0.550583    C 
atom    12.785404     2.971397     1.272614    H 
atom    12.978580     2.128592    -0.287184    H 
atom    11.663396     0.995523     1.182506    C 
atom    11.795815     0.901632     2.268163    H 
atom    11.985158     0.060080     0.706844    H 
atom    10.310484     1.525987     0.730764    C 
atom     8.966550     1.577259     0.535655    C 
atom     8.106957     0.960200     0.764042    H 
#structure number = 13
#Z = 2 , spg = 3
#struct_id = target1_2mpc_23d4b2b31f
lattice_vector    21.293133     0.000000     0.000000 
lattice_vector     0.000000     5.107111     0.000000 
lattice_vector    -1.519555     0.000000     2.787689 
atom     7.047660     2.710857     2.269622    O 
atom     5.832181     2.092427     2.038821    C 
atom     5.773340     1.065855     2.377180    H 
atom     5.015981     2.988527     1.424280    C 
atom     3.768453     3.556468     0.763488    C 
atom     2.886044     3.635782     1.411483    H 
atom     3.471248     3.075090    -0.177155    H 
atom     4.581529     4.907266     0.587010    C 
atom     4.166659     5.765537     1.131304    H 
atom     4.755313     5.202836    -0.455716    H 
atom     5.744267     4.199579     1.267488    C 
atom     6.983441     4.006774     1.791064    C 
atom     7.888974     4.585330     1.921842    H 
atom    12.725918     2.710857     0.518067    O 
atom    13.941397     2.092427     0.748867    C 
atom    14.000237     1.065855     0.410509    H 
atom    14.757597     2.988527     1.363408    C 
atom    16.005125     3.556468     2.024201    C 
atom    16.887533     3.635782     1.376206    H 
atom    16.302330     3.075090     2.964843    H 
atom    15.192049     4.907266     2.200679    C 
atom    15.606918     5.765537     1.656385    H 
atom    15.018264     5.202836     3.243405    H 
atom    14.029311     4.199579     1.520200    C 
atom    12.790136     4.006774     0.996624    C 
atom    11.884604     4.585330     0.865846    H 
#structure number = 14
#Z = 2 , spg = 6
#struct_id = target1_2mpc_21bcdc1c56
lattice_vector     4.665339     0.000000     0.000000 
lattice_vector     0.000000    17.844095     0.000000 
lattice_vector     3.431991     0.000000     3.318390 
atom     1.850198     6.547872    -0.402513    O 
atom     0.643431     6.046165    -0.855413    C 
atom     0.067386     6.730134    -1.465458    H 
atom     0.514348     4.777377    -0.385996    C 
atom    -0.100597     3.407521    -0.139281    C 
atom    -0.229532     2.780854    -1.031187    H 
atom    -1.039533     3.406587     0.429280    H 
atom     1.192316     3.076925     0.718609    C 
atom     1.807306     2.258420     0.322580    H 
atom     0.998605     2.888211     1.782424    H 
atom     1.673804     4.480650     0.381627    C 
atom     2.476282     5.577156     0.357929    C 
atom     3.436591     5.867213     0.764734    H 
atom     1.850198    11.296223    -0.402513    O 
atom     0.643431    11.797931    -0.855413    C 
atom     0.067386    11.113960    -1.465458    H 
atom     0.514348    13.066719    -0.385996    C 
atom    -0.100597    14.436574    -0.139281    C 
atom    -0.229532    15.063241    -1.031187    H 
atom    -1.039533    14.437508     0.429280    H 
atom     1.192316    14.767170     0.718609    C 
atom     1.807306    15.585676     0.322580    H 
atom     0.998605    14.955884     1.782424    H 
atom     1.673804    13.363445     0.381627    C 
atom     2.476282    12.266939     0.357929    C 
atom     3.436591    11.976882     0.764734    H 
#structure number = 13
#Z = 2 , spg = 2
lattice_vector    16.725803     0.000000     0.000000 
lattice_vector    -4.590806     3.458992     0.000000 
lattice_vector     0.810035     7.687895     3.216763 
atom    10.619899     7.100630     1.297634    O 
atom    11.183454     8.322817     0.978606    C 
atom    10.958268     8.680591    -0.017932    H 
atom    11.893723     8.750702     2.055300    C 
atom    12.778837     9.644248     2.911851    C 
atom    12.353061    10.622743     3.168943    H 
atom    13.800919     9.792723     2.540149    H 
atom    12.641383     8.545357     4.047828    C 
atom    12.138528     8.890943     4.960359    H 
atom    13.584179     8.058493     4.328774    H 
atom    11.769269     7.766490     3.073861    C 
atom    10.986628     6.767033     2.588668    C 
atom    10.596478     5.821237     2.942326    H 
atom     2.325134     4.046257     1.919130    O 
atom     1.761580     2.824069     2.238157    C 
atom     1.986764     2.466296     3.234696    H 
atom     1.051310     2.396185     1.161464    C 
atom     0.166197     1.502639     0.304912    C 
atom     0.591972     0.524144     0.047820    H 
atom    -0.855886     1.354164     0.676615    H 
atom     0.303650     2.601529    -0.831065    C 
atom     0.806505     2.255944    -1.743595    H 
atom    -0.639147     3.088395    -1.112011    H 
atom     1.175764     3.380396     0.142903    C 
atom     1.958406     4.379854     0.628095    C 
atom     2.348555     5.325650     0.274437    H 
#structure number = 16
#Z = 2 , spg = 3
#struct_id = target1_2mpc_cb3f8e91ef
lattice_vector    13.566267     0.000000     0.000000 
lattice_vector     0.000000     6.544241     0.000000 
lattice_vector    -1.735783     0.000000     2.502466 
atom     1.892014     7.178097     1.921275    O 
atom     1.076713     6.427187     1.093909    C 
atom     0.780570     6.921629     0.177599    H 
atom     0.867260     5.224557     1.691107    C 
atom     0.338498     3.813152     1.900580    C 
atom     0.689080     3.065930     1.176988    H 
atom    -0.751638     3.726173     1.994925    H 
atom     1.123443     3.816195     3.279256    C 
atom     1.924794     3.069430     3.351231    H 
atom     0.485132     3.733780     4.168416    H 
atom     1.571985     5.226819     2.926009    C 
atom     2.190777     6.430802     3.045924    C 
atom     2.828645     6.927489     3.765814    H 
atom     9.938470     7.178097     0.581191    O 
atom    10.753772     6.427187     1.408557    C 
atom    11.049914     6.921629     2.324867    H 
atom    10.963224     5.224557     0.811360    C 
atom    11.491985     3.813152     0.601887    C 
atom    11.141405     3.065930     1.325478    H 
atom    12.582122     3.726173     0.507542    H 
atom    10.707041     3.816195    -0.776789    C 
atom     9.905690     3.069430    -0.848764    H 
atom    11.345353     3.733780    -1.665949    H 
atom    10.258498     5.226819    -0.423543    C 
atom     9.639709     6.430802    -0.543457    C 
atom     9.001840     6.927489    -1.263348    H 
#structure number = 17
#Z = 2 , spg = 7
#struct_id = target1_2mpc_b0bd66e18e
lattice_vector     5.313021     0.000000     0.000000 
lattice_vector     0.000000    14.437103     0.000000 
lattice_vector    -1.044260     0.000000     2.729976 
atom     0.992800    12.494699     0.391356    O 
atom     0.089050    11.449183     0.448377    C 
atom    -0.951310    11.748095     0.458507    H 
atom     0.793444    10.287345     0.476645    C 
atom     1.068995     8.791704     0.528180    C 
atom     0.712911     8.216467    -0.336193    H 
atom     0.745920     8.283101     1.445682    H 
atom     2.611136     9.161622     0.485101    C 
atom     3.144366     8.797786    -0.402757    H 
atom     3.176256     8.868578     1.379307    H 
atom     2.175502    10.618914     0.436541    C 
atom     2.273705    11.973369     0.384913    C 
atom     3.064785    12.711013     0.341423    H 
atom     0.470670     1.942404     1.756344    O 
atom    -0.433080     2.987920     1.813365    C 
atom    -1.473439     2.689009     1.823495    H 
atom     0.271314     4.149758     1.841633    C 
atom     0.546865     5.645399     1.893168    C 
atom     0.190781     6.220637     1.028795    H 
atom     0.223791     6.154002     2.810671    H 
atom     2.089006     5.275481     1.850089    C 
atom     2.622236     5.639317     0.962231    H 
atom     2.654127     5.568526     2.744295    H 
atom     1.653372     3.818190     1.801530    C 
atom     1.751575     2.463735     1.749902    C 
atom     2.542655     1.726091     1.706411    H 
#structure number = 18
#Z = 2 , spg = 6
#struct_id = target1_2mpc_ad8fbe7d7d
lattice_vector     3.333256     0.000000     0.000000 
lattice_vector     0.000000    13.762612     0.000000 
lattice_vector     1.890058     0.000000     5.382698 
atom     4.507401     4.787870     3.060793    O 
atom     3.830999     4.340242     1.940425    C 
atom     3.951848     4.958089     1.059824    H 
atom     3.175032     3.198142     2.275316    C 
atom     2.293460     1.967186     2.123297    C 
atom     2.663024     1.205805     1.424331    H 
atom     1.237697     2.166940     1.898960    H 
atom     2.599427     1.665515     3.650476    C 
atom     3.143229     0.729385     3.831978    H 
atom     1.720064     1.694241     4.306780    H 
atom     3.450496     2.927049     3.643620    C 
atom     4.266528     3.911735     4.103342    C 
atom     4.752435     4.169598     5.035662    H 
atom     4.507401     8.974742     3.060793    O 
atom     3.830999     9.422370     1.940425    C 
atom     3.951848     8.804523     1.059824    H 
atom     3.175032    10.564471     2.275316    C 
atom     2.293460    11.795426     2.123297    C 
atom     2.663024    12.556808     1.424331    H 
atom     1.237697    11.595673     1.898960    H 
atom     2.599427    12.097097     3.650476    C 
atom     3.143229    13.033228     3.831978    H 
atom     1.720064    12.068372     4.306780    H 
atom     3.450496    10.835564     3.643620    C 
atom     4.266528     9.850879     4.103342    C 
atom     4.752435     9.593015     5.035662    H 
#structure number = 19
#Z = 2 , spg = 4
#struct_id = target1_2mpc_d1a6876842
lattice_vector     6.822001     0.000000     0.000000 
lattice_vector     0.000000     8.183311     0.000000 
lattice_vector     0.337466     0.000000     3.980531 
atom    -0.607207     6.306322     1.299981    O 
atom    -0.446236     5.112431     0.620402    C 
atom    -1.357970     4.695879     0.211718    H 
atom     0.871670     4.782993     0.658253    C 
atom     2.147145     3.989316     0.415828    C 
atom     2.452308     3.896274    -0.634434    H 
atom     2.180745     2.995495     0.880643    H 
atom     2.904735     5.123991     1.225437    C 
atom     3.648006     5.683368     0.642645    H 
atom     3.372619     4.784413     2.158502    H 
atom     1.550787     5.800718     1.382589    C 
atom     0.627222     6.721256     1.765339    C 
atom     0.615962     7.653207     2.315935    H 
atom     7.766674     2.214667     2.680550    O 
atom     7.605704     1.020776     3.360129    C 
atom     8.517437     0.604224     3.768813    H 
atom     6.287797     0.691339     3.322277    C 
atom     5.012322    -0.102340     3.564703    C 
atom     4.707159    -0.195382     4.614965    H 
atom     4.978722    -1.096161     3.099888    H 
atom     4.254732     1.032335     2.755094    C 
atom     3.511461     1.591713     3.337886    H 
atom     3.786848     0.692759     1.822029    H 
atom     5.608680     1.709064     2.597941    C 
atom     6.532245     2.629601     2.215192    C 
atom     6.543505     3.561552     1.664595    H 
#structure number = 20
#Z = 2 , spg = 6
#struct_id = target1_2mpc_3d95ef2558
lattice_vector     4.825200     0.000000     0.000000 
lattice_vector     0.000000     9.116396     0.000000 
lattice_vector    -7.483486     0.000000     5.211373 
atom    -0.295586     1.671815     0.436374    O 
atom     1.024614     1.976812     0.714155    C 
atom     1.672790     2.019772    -0.151767    H 
atom     1.142262     2.144809     2.057574    C 
atom     1.792742     2.422121     3.404981    C 
atom     2.193022     3.435780     3.535760    H 
atom     2.557355     1.699519     3.718151    H 
atom     0.360792     2.189801     4.047199    C 
atom    -0.063274     3.068643     4.549998    H 
atom     0.299611     1.331334     4.728471    H 
atom    -0.141429     1.938036     2.632907    C 
atom    -1.004606     1.650012     1.623538    C 
atom    -2.057267     1.419579     1.520470    H 
atom    -0.295586     7.444581     0.436374    O 
atom     1.024614     7.139584     0.714155    C 
atom     1.672790     7.096624    -0.151767    H 
atom     1.142262     6.971587     2.057574    C 
atom     1.792742     6.694275     3.404981    C 
atom     2.193022     5.680616     3.535760    H 
atom     2.557355     7.416877     3.718151    H 
atom     0.360792     6.926595     4.047199    C 
atom    -0.063274     6.047752     4.549998    H 
atom     0.299611     7.785062     4.728471    H 
atom    -0.141429     7.178360     2.632907    C 
atom    -1.004606     7.466384     1.623538    C 
atom    -2.057267     7.696817     1.520470    H 
#structure number = 21
#Z = 2 , spg = 3
#struct_id = target1_2mpc_c92a0c08f0
lattice_vector    29.324156     0.000000     0.000000 
lattice_vector     0.000000     2.742972     0.000000 
lattice_vector     3.576208     0.000000     2.798302 
atom    10.488277     2.662547    -0.713448    O 
atom    10.648507     2.176579     0.571571    C 
atom    11.629469     1.771695     0.785068    H 
atom     9.475786     2.352315     1.235407    C 
atom     8.464457     2.312131     2.371687    C 
atom     8.717544     2.919810     3.250041    H 
atom     8.173950     1.309257     2.710380    H 
atom     7.440750     2.994116     1.369781    C 
atom     7.102074     3.993707     1.671642    H 
atom     6.561471     2.382821     1.128896    H 
atom     8.558833     2.964878     0.337857    C 
atom     9.199116     3.144941    -0.847248    C 
atom     8.964790     3.552190    -1.822470    H 
atom    22.412086     2.662547     3.511750    O 
atom    22.251858     2.176579     2.226731    C 
atom    21.270895     1.771695     2.013234    H 
atom    23.424578     2.352315     1.562895    C 
atom    24.435907     2.312131     0.426615    C 
atom    24.182821     2.919810    -0.451739    H 
atom    24.726414     1.309257     0.087922    H 
atom    25.459614     2.994116     1.428521    C 
atom    25.798290     3.993707     1.126660    H 
atom    26.338894     2.382821     1.669406    H 
atom    24.341532     2.964878     2.460445    C 
atom    23.701250     3.144941     3.645550    C 
atom    23.935574     3.552190     4.620772    H 
#structure number = 22
#Z = 2 , spg = 3
#struct_id = target1_2mpc_2fa2ce44ad
lattice_vector    22.938889     0.000000     0.000000 
lattice_vector     0.000000     2.891138     0.000000 
lattice_vector    -4.548588     0.000000     3.002924 
atom     4.778158     1.340109    -1.434709    O 
atom     6.153696     1.451241    -1.341651    C 
atom     6.637639     1.852631    -2.222834    H 
atom     6.528130     1.005141    -0.113794    C 
atom     7.436808     0.639278     1.050671    C 
atom     7.973133     1.478465     1.512139    H 
atom     8.152267    -0.169979     0.855515    H 
atom     6.124766     0.190439     1.821377    C 
atom     5.906058     0.769254     2.728098    H 
atom     6.082952    -0.878356     2.067891    H 
atom     5.352042     0.604284     0.577408    C 
atom     4.294565     0.817671    -0.249070    C 
atom     3.220411     0.688210    -0.213702    H 
atom    13.612144     1.340109     4.437634    O 
atom    12.236603     1.451241     4.344576    C 
atom    11.752661     1.852631     5.225758    H 
atom    11.862169     1.005141     3.116719    C 
atom    10.953493     0.639278     1.952254    C 
atom    10.417168     1.478465     1.490786    H 
atom    10.238034    -0.169979     2.147409    H 
atom    12.265533     0.190439     1.181547    C 
atom    12.484241     0.769254     0.274827    H 
atom    12.307349    -0.878356     0.935034    H 
atom    13.038260     0.604284     2.425517    C 
atom    14.095736     0.817671     3.251995    C 
atom    15.169889     0.688210     3.216627    H 
#structure number = 23
#Z = 2 , spg = 3
#struct_id = target1_2mpc_6596af84cb
lattice_vector    17.928053     0.000000     0.000000 
lattice_vector     0.000000     3.547159     0.000000 
lattice_vector     4.824811     0.000000     4.522782 
atom    14.164545     2.275474     1.453112    O 
atom    13.813190     1.452784     2.508026    C 
atom    12.747455     1.336347     2.657844    H 
atom    14.957048     1.000957     3.086196    C 
atom    15.862741     0.250159     4.051366    C 
atom    15.797695    -0.844554     4.004420    H 
atom    15.794973     0.561245     5.101840    H 
atom    17.084675     0.873712     3.254526    C 
atom    17.725130     0.138503     2.750257    H 
atom    17.719574     1.546539     3.845328    H 
atom    16.052118     1.558668     2.371070    C 
atom    15.544168     2.334358     1.377517    C 
atom    15.929856     2.956237     0.579814    H 
atom     8.588318     2.275474     3.069670    O 
atom     8.939673     1.452784     2.014756    C 
atom    10.005409     1.336347     1.864938    H 
atom     7.795815     1.000957     1.436586    C 
atom     6.890122     0.250159     0.471416    C 
atom     6.955168    -0.844554     0.518362    H 
atom     6.957891     0.561245    -0.579058    H 
atom     5.668190     0.873712     1.268256    C 
atom     5.027733     0.138503     1.772526    H 
atom     5.033289     1.546539     0.677454    H 
atom     6.700745     1.558668     2.151712    C 
atom     7.208695     2.334358     3.145266    C 
atom     6.823008     2.956237     3.942969    H 
#structure number = 24
#Z = 2 , spg = 7
#struct_id = target1_2mpc_3a639b2774
lattice_vector    11.800620     0.000000     0.000000 
lattice_vector     0.000000     5.200870     0.000000 
lattice_vector     5.092184     0.000000     4.544833 
atom     5.862721     1.412036     3.493567    O 
atom     6.488032     2.550388     3.969229    C 
atom     6.508296     2.640512     5.047776    H 
atom     6.921321     3.268471     2.899903    C 
atom     7.573880     4.396051     2.113608    C 
atom     8.655939     4.508286     2.259834    H 
atom     7.101181     5.381043     2.219481    H 
atom     7.163620     3.603180     0.802144    C 
atom     8.008892     3.260421     0.191382    H 
atom     6.452098     4.130330     0.153537    H 
atom     6.554896     2.557080     1.724622    C 
atom     5.908842     1.425784     2.111457    C 
atom     5.444263     0.573464     1.632358    H 
atom     8.408813     3.788834     5.765983    O 
atom     9.034124     2.650481     6.241645    C 
atom     9.054388     2.560358     7.320192    H 
atom     9.467412     1.932399     5.172320    C 
atom    10.119972     0.804818     4.386024    C 
atom    11.202030     0.692583     4.532250    H 
atom     9.647274    -0.180174     4.491898    H 
atom     9.709711     1.597690     3.074561    C 
atom    10.554985     1.940448     2.463798    H 
atom     8.998190     1.070540     2.425954    H 
atom     9.100988     2.643789     3.997039    C 
atom     8.454935     3.775085     4.383873    C 
atom     7.990355     4.627406     3.904774    H 
#structure number = 25
#Z = 2 , spg = 3
#struct_id = target1_2mpc_6f29424923
lattice_vector    15.973170     0.000000     0.000000 
lattice_vector     0.000000     4.877934     0.000000 
lattice_vector    -3.234725     0.000000     2.778896 
atom     4.395233     2.820161    -1.007899    O 
atom     3.280468     2.017396    -1.169088    C 
atom     2.550878     2.389970    -1.876678    H 
atom     3.421034     0.936941    -0.356871    C 
atom     3.091356    -0.383338     0.324089    C 
atom     3.031002    -1.254712    -0.340663    H 
atom     2.204468    -0.372887     0.970760    H 
atom     4.471471    -0.233046     1.091937    C 
atom     5.205654    -1.018811     0.871597    H 
atom     4.379591    -0.133127     2.181163    H 
atom     4.658638     1.070980     0.330151    C 
atom     5.236838     2.229302    -0.083167    C 
atom     6.147272     2.778711     0.119508    H 
atom     8.343212     2.820161     3.786795    O 
atom     9.457976     2.017396     3.947984    C 
atom    10.187567     2.389970     4.655574    H 
atom     9.317411     0.936941     3.135767    C 
atom     9.647089    -0.383338     2.454807    C 
atom     9.707443    -1.254712     3.119560    H 
atom    10.533978    -0.372887     1.808136    H 
atom     8.266974    -0.233046     1.686959    C 
atom     7.532791    -1.018811     1.907299    H 
atom     8.358853    -0.133127     0.597733    H 
atom     8.079807     1.070980     2.448745    C 
atom     7.501607     2.229302     2.862063    C 
atom     6.591173     2.778711     2.659388    H 
#structure number = 26
#Z = 2 , spg = 4
#struct_id = target1_2mpc_e72d9c0788
lattice_vector     4.450718     0.000000     0.000000 
lattice_vector     0.000000    13.150805     0.000000 
lattice_vector    -2.848287     0.000000     4.624109 
atom    -1.320706     7.510173     1.784540    O 
atom    -1.929016     6.405819     1.215790    C 
atom    -2.582740     6.626555     0.381693    H 
atom    -1.515865     5.303556     1.894879    C 
atom    -1.388069     3.838576     2.286073    C 
atom    -0.933188     3.186322     1.529450    H 
atom    -2.308745     3.364801     2.650429    H 
atom    -0.395408     4.318846     3.426627    C 
atom     0.630847     3.941723     3.328755    H 
atom    -0.745545     4.124266     4.448578    H 
atom    -0.625077     5.733927     2.916106    C 
atom    -0.520867     7.086179     2.830020    C 
atom     0.006214     7.876553     3.348974    H 
atom     2.923138    14.085577     2.839569    O 
atom     3.531446    12.981222     3.408319    C 
atom     4.185171    13.201958     4.242416    H 
atom     3.118297    11.878959     2.729230    C 
atom     2.990500    10.413980     2.338035    C 
atom     2.535619     9.761725     3.094659    H 
atom     3.911176     9.940204     1.973680    H 
atom     1.997839    10.894248     1.197482    C 
atom     0.971584    10.517126     1.295354    H 
atom     2.347976    10.699669     0.175531    H 
atom     2.227508    12.309329     1.708002    C 
atom     2.123298    13.661582     1.794089    C 
atom     1.596217    14.451956     1.275135    H 
#structure number = 27
#Z = 2 , spg = 3
#struct_id = target1_2mpc_e32125a1c9
lattice_vector    16.833094     0.000000     0.000000 
lattice_vector     0.000000     3.224636     0.000000 
lattice_vector     2.274287     0.000000     4.144956 
atom    15.213017     2.310802     1.582358    O 
atom    14.886056     1.827810     2.836522    C 
atom    15.728232     1.490824     3.427263    H 
atom    13.537722     1.916409     2.981379    C 
atom    12.165616     1.797427     3.628449    C 
atom    12.010731     2.414843     4.522675    H 
atom    11.833073     0.774272     3.846235    H 
atom    11.576385     2.413619     2.290537    C 
atom    11.079989     3.384900     2.413872    H 
atom    10.906308     1.744227     1.735780    H 
atom    13.009871     2.470036     1.782838    C 
atom    14.051733     2.703015     0.941942    C 
atom    14.193965     3.100043    -0.055031    H 
atom     3.894363     2.310802     2.562598    O 
atom     4.221324     1.827810     1.308434    C 
atom     3.379147     1.490824     0.717693    H 
atom     5.569658     1.916409     1.163577    C 
atom     6.941764     1.797427     0.516506    C 
atom     7.096649     2.414843    -0.377719    H 
atom     7.274308     0.774272     0.298721    H 
atom     7.530996     2.413619     1.854418    C 
atom     8.027390     3.384900     1.731083    H 
atom     8.201072     1.744227     2.409175    H 
atom     6.097509     2.470036     2.362118    C 
atom     5.055648     2.703015     3.203013    C 
atom     4.913415     3.100043     4.199987    H 
#structure number = 28
#Z = 2 , spg = 7
#struct_id = target1_2mpc_3eb70d6dbf
lattice_vector     5.905044     0.000000     0.000000 
lattice_vector     0.000000     8.978216     0.000000 
lattice_vector    -2.293712     0.000000     3.911067 
atom    -0.600813     8.580440     3.136691    O 
atom    -1.651416     8.083701     2.386626    C 
atom    -2.578353     8.634505     2.482550    H 
atom    -1.204107     6.994068     1.708798    C 
atom    -1.225460     5.788661     0.780320    C 
atom    -1.406868     6.012343    -0.278873    H 
atom    -1.889405     4.969361     1.084928    H 
atom     0.300821     5.578466     1.158712    C 
atom     0.998840     5.678719     0.317450    H 
atom     0.515932     4.638999     1.684039    H 
atom     0.164186     6.806634     2.046837    C 
atom     0.511513     7.787512     2.920965    C 
atom     1.397803     8.089759     3.464063    H 
atom    -1.747669     0.397776     5.092225    O 
atom    -2.798272     0.894515     4.342158    C 
atom    -3.725210     0.343711     4.438084    H 
atom    -2.350963     1.984149     3.664331    C 
atom    -2.372317     3.189555     2.735853    C 
atom    -2.553724     2.965873     1.676660    H 
atom    -3.036261     4.008855     3.040461    H 
atom    -0.846035     3.399750     3.114245    C 
atom    -0.148016     3.299498     2.272983    H 
atom    -0.630924     4.339218     3.639572    H 
atom    -0.982670     2.171582     4.002370    C 
atom    -0.635343     1.190704     4.876498    C 
atom     0.250947     0.888457     5.419596    H 
#structure number = 29
#Z = 2 , spg = 4
#struct_id = target1_2mpc_9f311f997d
lattice_vector    16.093283     0.000000     0.000000 
lattice_vector     0.000000     6.036835     0.000000 
lattice_vector     4.445166     0.000000     3.070792 
atom     9.314262     5.014252     3.650104    O 
atom     9.130627     5.277322     2.304673    C 
atom     8.109707     5.497671     2.020123    H 
atom    10.338862     5.181117     1.690059    C 
atom    11.372155     5.198704     0.573131    C 
atom    11.530498     6.172695     0.092401    H 
atom    11.236572     4.439487    -0.207938    H 
atom    12.447123     4.825539     1.678612    C 
atom    13.226200     5.583200     1.833499    H 
atom    12.929060     3.849709     1.536014    H 
atom    11.302455     4.848128     2.681138    C 
atom    10.653778     4.751020     3.871367    C 
atom    10.910192     4.530625     4.899712    H 
atom    11.224186     1.995835    -0.579312    O 
atom    11.407823     2.258906     0.766119    C 
atom    12.428741     2.479254     1.050669    H 
atom    10.199587     2.162700     1.380733    C 
atom     9.166294     2.180287     2.497661    C 
atom     9.007952     3.154278     2.978391    H 
atom     9.301878     1.421069     3.278730    H 
atom     8.091326     1.807122     1.392180    C 
atom     7.312249     2.564783     1.237293    H 
atom     7.609389     0.831292     1.534778    H 
atom     9.235994     1.829711     0.389654    C 
atom     9.884671     1.732604    -0.800575    C 
atom     9.628256     1.512208    -1.828920    H 
#structure number = 30
#Z = 2 , spg = 7
#struct_id = target1_2mpc_55917b87bd
lattice_vector    10.212398     0.000000     0.000000 
lattice_vector     0.000000     4.882792     0.000000 
lattice_vector     2.991480     0.000000     5.078706 
atom    12.512182     3.283538     0.670692    O 
atom    12.288830     4.580347     1.096736    C 
atom    12.849797     5.336804     0.562992    H 
atom    11.386358     4.538432     2.111934    C 
atom    10.467897     5.032210     3.220151    C 
atom     9.636086     5.669936     2.894225    H 
atom    10.968979     5.515182     4.068984    H 
atom    10.080484     3.512336     3.458468    C 
atom     9.025161     3.274466     3.272154    H 
atom    10.360979     3.118630     4.443941    H 
atom    11.038092     3.176386     2.324467    C 
atom    11.738303     2.427296     1.432599    C 
atom    11.837049     1.379174     1.180593    H 
atom    14.007922     1.599255     3.210046    O 
atom    13.784570     0.302446     3.636089    C 
atom    14.345537    -0.454012     3.102345    H 
atom    12.882098     0.344360     4.651288    C 
atom    11.963637    -0.149417     5.759504    C 
atom    11.131825    -0.787144     5.433578    H 
atom    12.464721    -0.632390     6.608336    H 
atom    11.576224     1.370456     5.997821    C 
atom    10.520901     1.608326     5.811507    H 
atom    11.856720     1.764163     6.983294    H 
atom    12.533833     1.706406     4.863820    C 
atom    13.234043     2.455496     3.971952    C 
atom    13.332788     3.503618     3.719946    H 
#structure number = 31
#Z = 2 , spg = 7
#struct_id = target1_2mpc_e3f1f250d1
lattice_vector     6.274158     0.000000     0.000000 
lattice_vector     0.000000     4.693178     0.000000 
lattice_vector    12.383811     0.000000     8.051586 
atom     4.450585     2.076124     1.117710    O 
atom     3.371605     1.949253     0.261661    C 
atom     3.292281     2.726592    -0.487504    H 
atom     2.682980     0.833105     0.617817    C 
atom     1.606663    -0.242318     0.594618    C 
atom     1.585243    -0.868794    -0.306438    H 
atom     0.586942     0.105187     0.805032    H 
atom     2.352251    -0.893873     1.834162    C 
atom     2.758543    -1.896578     1.648392    H 
atom     1.762934    -0.919235     2.759853    H 
atom     3.352096     0.248417     1.727795    C 
atom     4.429387     1.025028     2.016203    C 
atom     5.236546     1.026904     2.737528    H 
atom    10.642489     2.617054     5.143503    O 
atom     9.563511     2.743925     4.287455    C 
atom     9.484187     1.966586     3.538289    H 
atom     8.874886     3.860073     4.643610    C 
atom     7.798567     4.935495     4.620410    C 
atom     7.777148     5.561971     3.719355    H 
atom     6.778847     4.587991     4.830825    H 
atom     8.544154     5.587051     5.859954    C 
atom     8.950448     6.589756     5.674185    H 
atom     7.954842     5.612413     6.785645    H 
atom     9.544002     4.444760     5.753588    C 
atom    10.621291     3.668150     6.041996    C 
atom    11.428451     3.666274     6.763320    H 
#structure number = 32
#Z = 2 , spg = 6
#struct_id = target1_2mpc_4f9a4ba995
lattice_vector     4.966753     0.000000     0.000000 
lattice_vector     0.000000    12.097572     0.000000 
lattice_vector    -2.841442     0.000000     3.711060 
atom     3.457836    10.942723     0.123442    O 
atom     2.403155    10.144302    -0.280646    C 
atom     1.684075    10.633472    -0.925188    H 
atom     2.574081     8.913709     0.270044    C 
atom     2.296803     7.456949     0.611362    C 
atom     2.320094     6.761047    -0.237173    H 
atom     1.383107     7.273201     1.191239    H 
atom     3.629481     7.494382     1.471284    C 
atom     4.419950     6.818597     1.119894    H 
atom     3.483276     7.334953     2.547409    H 
atom     3.769259     8.946919     1.039508    C 
atom     4.292464    10.196847     0.935604    C 
atom     5.157244    10.729296     1.310400    H 
atom     3.457836     1.154849     0.123442    O 
atom     2.403155     1.953270    -0.280646    C 
atom     1.684075     1.464100    -0.925188    H 
atom     2.574081     3.183864     0.270044    C 
atom     2.296803     4.640624     0.611362    C 
atom     2.320094     5.336525    -0.237173    H 
atom     1.383107     4.824371     1.191239    H 
atom     3.629481     4.603190     1.471284    C 
atom     4.419950     5.278975     1.119894    H 
atom     3.483276     4.762619     2.547409    H 
atom     3.769259     3.150653     1.039508    C 
atom     4.292464     1.900726     0.935604    C 
atom     5.157244     1.368276     1.310400    H 
#structure number = 33
#Z = 2 , spg = 7
#struct_id = target1_2mpc_f020db4c2c
lattice_vector     3.726636     0.000000     0.000000 
lattice_vector     0.000000     3.989431     0.000000 
lattice_vector    14.752257     0.000000    12.438369 
atom    12.372743     1.683743     8.591575    O 
atom    12.516977     2.251031     7.338380    C 
atom    13.228845     3.064936     7.287394    H 
atom    11.686663     1.597023     6.484159    C 
atom    10.982145     1.231040     5.185990    C 
atom    11.631618     0.846214     4.389169    H 
atom    10.333284     2.009767     4.764772    H 
atom    10.220846     0.112928     6.014933    C 
atom    10.429662    -0.916038     5.694581    H 
atom     9.133250     0.249012     6.073734    H 
atom    11.005499     0.593995     7.226844    C 
atom    11.440317     0.665481     8.512410    C 
atom    11.249672     0.149817     9.444915    H 
atom     4.996614     2.305687     2.372389    O 
atom     5.140845     1.738399     1.119194    C 
atom     5.852716     0.924494     1.068209    H 
atom     4.310535     2.392408     0.264977    C 
atom     3.606018     2.758391    -1.033193    C 
atom     4.255490     3.143217    -1.830016    H 
atom     2.957155     1.979664    -1.454412    H 
atom     2.844717     3.876502    -0.204251    C 
atom     3.053533     4.905469    -0.524603    H 
atom     1.757122     3.740418    -0.145450    H 
atom     3.629372     3.395436     1.007660    C 
atom     4.064190     3.323950     2.293226    C 
atom     3.873543     3.839613     3.225730    H 
#structure number = 34
#Z = 2 , spg = 6
#struct_id = target1_2mpc_448eed5b53
lattice_vector     3.982007     0.000000     0.000000 
lattice_vector     0.000000    18.180168     0.000000 
lattice_vector    -0.158814     0.000000     3.932397 
atom    -0.497079    14.278997     2.221951    O 
atom    -1.057108    13.467835     1.251642    C 
atom    -1.910476    13.894335     0.740116    H 
atom    -0.345857    12.310545     1.211134    C 
atom     0.075740    10.914350     0.777054    C 
atom     0.431347    10.829475    -0.257920    H 
atom    -0.658854    10.120028     0.962225    H 
atom     1.226554    11.017354     1.864212    C 
atom     2.245275    10.989592     1.456244    H 
atom     1.153426    10.283938     2.677594    H 
atom     0.686416    12.403542     2.184475    C 
atom     0.574665    13.614927     2.790210    C 
atom     1.089619    14.164295     3.567923    H 
atom    -0.497079     3.901171     2.221951    O 
atom    -1.057108     4.712333     1.251642    C 
atom    -1.910476     4.285833     0.740116    H 
atom    -0.345857     5.869623     1.211134    C 
atom     0.075740     7.265819     0.777054    C 
atom     0.431347     7.350692    -0.257920    H 
atom    -0.658854     8.060140     0.962225    H 
atom     1.226554     7.162814     1.864212    C 
atom     2.245275     7.190576     1.456244    H 
atom     1.153426     7.896230     2.677594    H 
atom     0.686416     5.776627     2.184475    C 
atom     0.574665     4.565241     2.790210    C 
atom     1.089619     4.015873     3.567923    H 
#structure number = 35
#Z = 2 , spg = 4
#struct_id = target1_2mpc_ab163a4cff
lattice_vector     3.696349     0.000000     0.000000 
lattice_vector     0.000000     9.337820     0.000000 
lattice_vector    -3.451557     0.000000     5.059003 
atom     0.237575     2.171406     3.279477    O 
atom     0.584826     3.133294     2.348186    C 
atom     0.070788     4.079472     2.459139    H 
atom     1.516620     2.595645     1.517806    C 
atom     2.512910     2.496361     0.371909    C 
atom     3.383257     3.161213     0.444711    H 
atom     2.085368     2.586548    -0.635036    H 
atom     2.779020     1.006056     0.846327    C 
atom     3.803079     0.811307     1.190384    H 
atom     2.502080     0.237153     0.113571    H 
atom     1.756138     1.260487     1.943966    C 
atom     0.963445     1.022788     3.021924    C 
atom     0.767554     0.199895     3.697418    H 
atom     0.007217     6.840316     1.779526    O 
atom    -0.340034     7.802204     2.710817    C 
atom     0.174004     8.748382     2.599864    H 
atom    -1.271828     7.264556     3.541197    C 
atom    -2.268118     7.165271     4.687094    C 
atom    -3.138465     7.830123     4.614292    H 
atom    -1.840577     7.255458     5.694039    H 
atom    -2.534228     5.674965     4.212676    C 
atom    -3.558288     5.480217     3.868619    H 
atom    -2.257288     4.906063     4.945432    H 
atom    -1.511347     5.929398     3.115037    C 
atom    -0.718654     5.691698     2.037078    C 
atom    -0.522762     4.868805     1.361585    H 
#structure number = 36
#Z = 2 , spg = 7
#struct_id = target1_2mpc_4c17bc1d73
lattice_vector    10.664601     0.000000     0.000000 
lattice_vector     0.000000     7.254045     0.000000 
lattice_vector    -4.965121     0.000000     3.436313 
atom     7.766890    -1.191951    -0.609484    O 
atom     7.264322     0.049615    -0.954523    C 
atom     6.823285     0.102801    -1.941668    H 
atom     7.474851     0.892245     0.090700    C 
atom     7.463686     2.176011     0.907615    C 
atom     6.469471     2.553140     1.179905    H 
atom     8.052300     3.004751     0.493385    H 
atom     8.193573     1.353154     2.050887    C 
atom     7.621214     1.257900     2.982730    H 
atom     9.204197     1.706149     2.293520    H 
atom     8.127665     0.154324     1.115850    C 
atom     8.296191    -1.116917     0.665958    C 
atom     8.719738    -2.041149     1.037741    H 
atom     5.284329     8.445997     1.108672    O 
atom     4.781762     7.204430     0.763633    C 
atom     4.340724     7.151244    -0.223511    H 
atom     4.992290     6.361800     1.808856    C 
atom     4.981125     5.078034     2.625772    C 
atom     3.986910     4.700905     2.898062    H 
atom     5.569740     4.249294     2.211542    H 
atom     5.711012     5.900890     3.769043    C 
atom     5.138653     5.996145     4.700887    H 
atom     6.721637     5.547895     4.011676    H 
atom     5.645105     7.099721     2.834007    C 
atom     5.813631     8.370962     2.384114    C 
atom     6.237177     9.295194     2.755898    H 
#structure number = 6
#Z = 2 , spg = 2
lattice_vector    40.060238     0.000000     0.000000 
lattice_vector    -3.803544     3.082710     0.000000 
lattice_vector     7.183199    10.887844     2.542681 
atom    20.816706    13.498674     0.572270    O 
atom    21.253723    12.187288     0.621208    C 
atom    21.605528    11.790211    -0.322380    H 
atom    21.112408    11.745795     1.898687    C 
atom    21.160114    10.801432     3.090923    C 
atom    22.163754    10.480955     3.398882    H 
atom    20.515577     9.915900     3.018314    H 
atom    20.554974    11.991324     3.948152    C 
atom    21.208664    12.355154     4.751472    H 
atom    19.560183    11.792400     4.367273    H 
atom    20.571444    12.812741     2.667200    C 
atom    20.398661    13.873909     1.835985    C 
atom    20.034122    14.890403     1.911324    H 
atom    22.623188     0.471879     1.970411    O 
atom    22.186172     1.783266     1.921473    C 
atom    21.834366     2.180343     2.865061    H 
atom    22.327486     2.224759     0.643994    C 
atom    22.279779     3.169124    -0.548242    C 
atom    21.276138     3.489599    -0.856201    H 
atom    22.924316     4.054654    -0.475633    H 
atom    22.884918     1.979230    -1.405471    C 
atom    22.231232     1.615399    -2.208790    H 
atom    23.879709     2.178153    -1.824592    H 
atom    22.868448     1.157813    -0.124519    C 
atom    23.041233     0.096645     0.706696    C 
atom    23.405769    -0.919848     0.631357    H 
#structure number = 38
#Z = 2 , spg = 7
#struct_id = target1_2mpc_895fdde0ae
lattice_vector    12.342753     0.000000     0.000000 
lattice_vector     0.000000     3.061504     0.000000 
lattice_vector     8.578032     0.000000     5.999625 
atom     5.436232     2.703912     0.105923    O 
atom     4.166693     2.154980     0.113503    C 
atom     3.745905     1.970057    -0.866567    H 
atom     3.787184     1.994457     1.408510    C 
atom     2.916720     1.623731     2.600309    C 
atom     2.691218     0.554633     2.705235    H 
atom     1.981991     2.190952     2.697291    H 
atom     4.102711     2.141492     3.518048    C 
atom     4.559251     1.371559     4.153482    H 
atom     3.852088     3.009108     4.141963    H 
atom     4.850744     2.457139     2.230941    C 
atom     5.847966     2.886312     1.413496    C 
atom     6.836332     3.313870     1.523694    H 
atom     9.725248     0.357593     3.105736    O 
atom     8.455709     0.906524     3.113315    C 
atom     8.034921     1.091448     2.133245    H 
atom     8.076199     1.067047     4.408322    C 
atom     7.205736     1.437773     5.600121    C 
atom     6.980234     2.506871     5.705048    H 
atom     6.271007     0.870552     5.697103    H 
atom     8.391727     0.920012     6.517860    C 
atom     8.848267     1.689945     7.153295    H 
atom     8.141104     0.052396     7.141775    H 
atom     9.139759     0.604365     5.230753    C 
atom    10.136982     0.175193     4.413309    C 
atom    11.125347    -0.252366     4.523506    H 
#structure number = 39
#Z = 2 , spg = 6
#struct_id = target1_2mpc_0c5fb57f3e
lattice_vector     4.136356     0.000000     0.000000 
lattice_vector     0.000000    13.253558     0.000000 
lattice_vector    -6.550880     0.000000     6.130798 
atom    -3.112412    10.083819     4.214678    O 
atom    -2.997549     9.408805     3.012898    C 
atom    -3.670954     8.569180     2.897337    H 
atom    -2.027364    10.017446     2.281369    C 
atom    -1.088174    10.297654     1.117352    C 
atom    -1.575196    10.591471     0.178568    H 
atom    -0.355477     9.509446     0.901146    H 
atom    -0.524539    11.507161     1.975435    C 
atom    -0.684605    12.497751     1.530337    H 
atom     0.532556    11.414466     2.256143    H 
atom    -1.523301    11.102320     3.049870    C 
atom    -2.200847    11.123734     4.227720    C 
atom    -2.206295    11.722075     5.129817    H 
atom    -3.112412     3.169738     4.214678    O 
atom    -2.997549     3.844754     3.012898    C 
atom    -3.670954     4.684378     2.897337    H 
atom    -2.027364     3.236113     2.281369    C 
atom    -1.088174     2.955904     1.117352    C 
atom    -1.575196     2.662087     0.178568    H 
atom    -0.355477     3.744112     0.901146    H 
atom    -0.524539     1.746397     1.975435    C 
atom    -0.684605     0.755807     1.530337    H 
atom     0.532556     1.839092     2.256143    H 
atom    -1.523301     2.151238     3.049870    C 
atom    -2.200847     2.129824     4.227720    C 
atom    -2.206295     1.531483     5.129817    H 
#structure number = 12
#Z = 2 , spg = 2
lattice_vector    10.711526     0.000000     0.000000 
lattice_vector     3.693088     6.112743     0.000000 
lattice_vector     2.456374     1.508516     4.340732 
atom     7.547379     4.253932     3.461827    O 
atom     6.723958     3.433325     2.712362    C 
atom     6.454340     3.826017     1.740304    H 
atom     6.473638     2.313305     3.440189    C 
atom     5.904037     0.949268     3.801424    C 
atom     6.244578     0.114946     3.174710    H 
atom     4.810719     0.901234     3.886332    H 
atom     6.669084     1.091631     5.183934    C 
atom     7.448876     0.338223     5.355112    H 
atom     6.016193     1.128477     6.065532    H 
atom     7.160525     2.440321     4.678608    C 
atom     7.809826     3.634134     4.669931    C 
atom     8.450563     4.194364     5.338824    H 
atom     9.313608     3.367328     0.878906    O 
atom    10.137031     4.187934     1.628370    C 
atom    10.406649     3.795243     2.600428    H 
atom    10.387349     5.307954     0.900543    C 
atom    10.956949     6.671991     0.539308    C 
atom    10.616409     7.506314     1.166022    H 
atom    12.050268     6.720025     0.454401    H 
atom    10.191903     6.529628    -0.843202    C 
atom     9.412111     7.283036    -1.014380    H 
atom    10.844794     6.492782    -1.724800    H 
atom     9.700462     5.180938    -0.337876    C 
atom     9.051162     3.987125    -0.329199    C 
atom     8.410425     3.426896    -0.998092    H 
#structure number = 41
#Z = 2 , spg = 6
#struct_id = target1_2mpc_0e170f5503
lattice_vector     3.065723     0.000000     0.000000 
lattice_vector     0.000000    14.264791     0.000000 
lattice_vector    -2.831538     0.000000     5.035790 
atom     0.008183     5.061842     1.764720    O 
atom    -0.819813     4.176942     1.098021    C 
atom    -1.098268     4.481471     0.097260    H 
atom    -1.061872     3.125638     1.924464    C 
atom    -1.625762     1.798351     2.410125    C 
atom    -1.288791     0.912112     1.857075    H 
atom    -2.718241     1.756701     2.508191    H 
atom    -0.849545     2.063804     3.768035    C 
atom    -0.066875     1.329522     3.998809    H 
atom    -1.495166     2.177955     4.648367    H 
atom    -0.364978     3.362920     3.140878    C 
atom     0.281873     4.552047     3.020804    C 
atom     0.927036     5.170223     3.631903    H 
atom     0.008183     9.202949     1.764720    O 
atom    -0.819813    10.087849     1.098021    C 
atom    -1.098268     9.783319     0.097260    H 
atom    -1.061872    11.139153     1.924464    C 
atom    -1.625762    12.466440     2.410125    C 
atom    -1.288791    13.352678     1.857075    H 
atom    -2.718241    12.508090     2.508191    H 
atom    -0.849545    12.200986     3.768035    C 
atom    -0.066875    12.935269     3.998809    H 
atom    -1.495166    12.086836     4.648367    H 
atom    -0.364978    10.901871     3.140878    C 
atom     0.281873     9.712744     3.020804    C 
atom     0.927036     9.094568     3.631903    H 
#structure number = 8
#Z = 2 , spg = 2
lattice_vector     4.588532     0.000000     0.000000 
lattice_vector    -4.781394     4.425134     0.000000 
lattice_vector    30.473276    32.953724    10.338607 
atom    22.432898    24.914742     6.390195    O 
atom    23.193661    23.980652     5.710612    C 
atom    22.918436    23.838493     4.673386    H 
atom    24.115211    23.481256     6.575591    C 
atom    25.272057    22.637774     7.091121    C 
atom    26.245022    22.835205     6.622942    H 
atom    25.099648    21.553766     7.098999    H 
atom    25.056013    23.351948     8.491184    C 
atom    25.905071    23.959074     8.831039    H 
atom    24.756268    22.679623     9.305412    H 
atom    23.922468    24.122440     7.829928    C 
atom    22.888985    24.994280     7.693347    C 
atom    22.359148    25.701769     8.318294    H 
atom     7.847517    12.464116     3.948411    O 
atom     7.086752    13.398205     4.627995    C 
atom     7.361979    13.540363     5.665221    H 
atom     6.165202    13.897601     3.763016    C 
atom     5.008358    14.741084     3.247486    C 
atom     4.035392    14.543652     3.715665    H 
atom     5.180766    15.825091     3.239608    H 
atom     5.224401    14.026910     1.847422    C 
atom     4.375344    13.419785     1.507567    H 
atom     5.524148    14.699236     1.033195    H 
atom     6.357946    13.256418     2.508679    C 
atom     7.391429    12.384578     2.645260    C 
atom     7.921266    11.677090     2.020314    H 
#structure number = 43
#Z = 2 , spg = 3
#struct_id = target1_2mpc_a2a9de9872
lattice_vector    15.704573     0.000000     0.000000 
lattice_vector     0.000000     3.666464     0.000000 
lattice_vector    -1.586814     0.000000     3.188236 
atom     4.168743     1.757212     3.661064    O 
atom     2.854531     2.162436     3.513574    C 
atom     2.532419     2.922937     4.213345    H 
atom     2.312325     1.459990     2.484293    C 
atom     1.274410     0.980038     1.480346    C 
atom     0.922782     1.736783     0.767235    H 
atom     0.402374     0.469986     1.909606    H 
atom     2.395558     0.010444     0.914828    C 
atom     2.688519     0.206767    -0.124707    H 
atom     2.170697    -1.058687     1.020836    H 
atom     3.317624     0.592108     1.976568    C 
atom     4.443708     0.790614     2.710998    C 
atom     5.453429     0.401264     2.737269    H 
atom     9.949016     1.757212    -0.472827    O 
atom    11.263227     2.162436    -0.325338    C 
atom    11.585340     2.922937    -1.025109    H 
atom    11.805434     1.459990     0.703944    C 
atom    12.843349     0.980038     1.707890    C 
atom    13.194977     1.736783     2.421001    H 
atom    13.715384     0.469986     1.278631    H 
atom    11.722201     0.010444     2.273408    C 
atom    11.429239     0.206767     3.312943    H 
atom    11.947062    -1.058687     2.167400    H 
atom    10.800135     0.592108     1.211668    C 
atom     9.674050     0.790614     0.477238    C 
atom     8.664330     0.401264     0.450967    H 
#structure number = 44
#Z = 2 , spg = 4
#struct_id = target1_2mpc_69af0b5251
lattice_vector     8.392383     0.000000     0.000000 
lattice_vector     0.000000     4.464989     0.000000 
lattice_vector    -0.419047     0.000000     5.193307 
atom    -0.251051     1.596816     3.335924    O 
atom    -0.398134     2.673676     4.191407    C 
atom    -1.413842     3.031804     4.300401    H 
atom     0.830021     2.993911     4.677127    C 
atom     1.897263     3.731359     5.472549    C 
atom     1.803468     3.663002     6.564043    H 
atom     2.048380     4.783405     5.198277    H 
atom     2.945155     2.724809     4.835622    C 
atom     3.456916     2.077974     5.559988    H 
atom     3.698624     3.196724     4.191867    H 
atom     1.768894     2.090834     4.107394    C 
atom     1.085919     1.246074     3.290825    C 
atom     1.314653     0.407531     2.645578    H 
atom     8.224387    -0.635679     1.857383    O 
atom     8.371470     0.441182     1.001900    C 
atom     9.387178     0.799309     0.892906    H 
atom     7.143315     0.761416     0.516180    C 
atom     6.076073     1.498865    -0.279242    C 
atom     6.169868     1.430507    -1.370736    H 
atom     5.924956     2.550910    -0.004969    H 
atom     5.028181     0.492314     0.357685    C 
atom     4.516419    -0.154521    -0.366682    H 
atom     4.274712     0.964229     1.001440    H 
atom     6.204443    -0.141661     1.085913    C 
atom     6.887417    -0.986421     1.902482    C 
atom     6.658683    -1.824964     2.547729    H 
#structure number = 45
#Z = 2 , spg = 4
#struct_id = target1_2mpc_301f611c7a
lattice_vector     7.399895     0.000000     0.000000 
lattice_vector     0.000000     8.642970     0.000000 
lattice_vector    -1.022436     0.000000     3.401896 
atom     5.368986     2.758787     2.693928    O 
atom     4.735999     3.936127     3.049331    C 
atom     5.355446     4.821669     2.986881    H 
atom     3.455617     3.636574     3.392447    C 
atom     2.021079     3.844715     3.855383    C 
atom     1.393734     4.450846     3.189143    H 
atom     1.905032     4.216635     4.881576    H 
atom     1.832854     2.277667     3.694675    C 
atom     1.095575     1.980591     2.937597    H 
atom     1.611062     1.746101     4.629066    H 
atom     3.286586     2.232333     3.246971    C 
atom     4.468851     1.716392     2.819286    C 
atom     4.863600     0.741350     2.563779    H 
atom     1.008472     7.080272     0.707968    O 
atom     1.641459     8.257612     0.352565    C 
atom     1.022013     9.143154     0.415015    H 
atom     2.921841     7.958059     0.009449    C 
atom     4.356380     8.166201    -0.453487    C 
atom     4.983724     8.772331     0.212753    H 
atom     4.472426     8.538120    -1.479680    H 
atom     4.544604     6.599152    -0.292780    C 
atom     5.281883     6.302077     0.464299    H 
atom     4.766397     6.067586    -1.227170    H 
atom     3.090872     6.553818     0.154925    C 
atom     1.908607     6.037878     0.582610    C 
atom     1.513858     5.062835     0.838117    H 
#structure number = 46
#Z = 2 , spg = 7
#struct_id = target1_2mpc_2d0c2ced76
lattice_vector    11.266219     0.000000     0.000000 
lattice_vector     0.000000     3.627028     0.000000 
lattice_vector    -7.142293     0.000000     6.122003 
atom     2.416698     1.861013     3.593417    O 
atom     2.387299     2.133562     4.949133    C 
atom     1.515406     2.681041     5.283599    H 
atom     3.512643     1.613345     5.505742    C 
atom     4.534573     1.249617     6.572929    C 
atom     4.180644     0.558556     7.348817    H 
atom     5.032354     2.098476     7.059258    H 
atom     5.374477     0.566263     5.413408    C 
atom     5.506594    -0.518055     5.522042    H 
atom     6.355382     1.023327     5.229674    H 
atom     4.264606     0.999641     4.466729    C 
atom     3.575875     1.163416     3.306691    C 
atom     3.700565     0.897110     2.264890    H 
atom     5.987845     1.766014     0.532415    O 
atom     5.958445     1.493465     1.888132    C 
atom     5.086552     0.945987     2.222597    H 
atom     7.083790     2.013682     2.444740    C 
atom     8.105721     2.377411     3.511928    C 
atom     7.751791     3.068472     4.287816    H 
atom     8.603502     1.528552     3.998256    H 
atom     8.945623     3.060764     2.352407    C 
atom     9.077739     4.145082     2.461041    H 
atom     9.926528     2.603701     2.168673    H 
atom     7.835753     2.627386     1.405727    C 
atom     7.147022     2.463611     0.245690    C 
atom     7.271711     2.729918    -0.796111    H 
#structure number = 47
#Z = 2 , spg = 3
#struct_id = target1_2mpc_ca94f7d145
lattice_vector    15.497566     0.000000     0.000000 
lattice_vector     0.000000     4.253980     0.000000 
lattice_vector     2.626893     0.000000     5.393462 
atom    15.429306     1.844258     1.935990    O 
atom    14.319721     1.570638     1.156846    C 
atom    14.489082     1.627775     0.089208    H 
atom    13.281315     1.294015     1.988729    C 
atom    11.872045     0.929868     2.432445    C 
atom    11.532371    -0.074139     2.147097    H 
atom    11.091012     1.653706     2.166156    H 
atom    12.403241     1.048421     3.922637    C 
atom    12.367678     0.113537     4.496857    H 
atom    11.930103     1.842699     4.514331    H 
atom    13.757843     1.398840     3.324229    C 
atom    15.073067     1.736290     3.267897    C 
atom    15.873425     1.931698     3.970079    H 
atom     2.695153     1.844258     3.457472    O 
atom     3.804738     1.570638     4.236616    C 
atom     3.635376     1.627775     5.304254    H 
atom     4.843144     1.294015     3.404733    C 
atom     6.252414     0.929868     2.961016    C 
atom     6.592089    -0.074139     3.246364    H 
atom     7.033447     1.653706     3.227306    H 
atom     5.721218     1.048421     1.470825    C 
atom     5.756781     0.113537     0.896605    H 
atom     6.194355     1.842699     0.879131    H 
atom     4.366615     1.398840     2.069233    C 
atom     3.051392     1.736290     2.125565    C 
atom     2.251034     1.931698     1.423383    H 
#structure number = 48
#Z = 2 , spg = 6
#struct_id = target1_2mpc_72bd95d9bd
lattice_vector     3.432395     0.000000     0.000000 
lattice_vector     0.000000    12.810985     0.000000 
lattice_vector     7.356156     0.000000     5.849901 
atom     9.648355    11.767176     4.590271    O 
atom     8.850487    10.992454     3.767882    C 
atom     8.561919    11.465692     2.838059    H 
atom     8.643887     9.800212     4.386522    C 
atom     8.124879     8.388571     4.617682    C 
atom     8.491371     7.630171     3.913874    H 
atom     7.034418     8.293643     4.699814    H 
atom     8.891821     8.426408     6.005942    C 
atom     9.698704     7.688521     6.103230    H 
atom     8.242780     8.356092     6.888349    H 
atom     9.332488     9.833654     5.630040    C 
atom     9.939063    11.045354     5.733515    C 
atom    10.563151    11.562153     6.451326    H 
atom     9.648355     1.043809     4.590271    O 
atom     8.850487     1.818531     3.767882    C 
atom     8.561919     1.345293     2.838059    H 
atom     8.643887     3.010772     4.386522    C 
atom     8.124879     4.422414     4.617682    C 
atom     8.491371     5.180813     3.913874    H 
atom     7.034418     4.517342     4.699814    H 
atom     8.891821     4.384577     6.005942    C 
atom     9.698704     5.122464     6.103230    H 
atom     8.242780     4.454892     6.888349    H 
atom     9.332488     2.977330     5.630040    C 
atom     9.939063     1.765631     5.733515    C 
atom    10.563151     1.248832     6.451326    H 
#structure number = 49
#Z = 2 , spg = 4
#struct_id = target1_2mpc_52af9c4e60
lattice_vector    14.517352     0.000000     0.000000 
lattice_vector     0.000000     5.839492     0.000000 
lattice_vector     2.609976     0.000000     2.568377 
atom     6.238402     3.906569     0.573834    O 
atom     5.060009     4.622340     0.463500    C 
atom     5.186675     5.691876     0.354664    H 
atom     4.027122     3.741334     0.525263    C 
atom     2.595143     3.226763     0.538820    C 
atom     2.031415     3.376320    -0.391059    H 
atom     1.979052     3.566282     1.381447    H 
atom     3.209813     1.774487     0.711940    C 
atom     2.998564     1.086393    -0.116855    H 
atom     2.950101     1.278170     1.655898    H 
atom     4.578137     2.439645     0.678932    C 
atom     5.931082     2.564728     0.706342    C 
atom     6.787327     1.909159     0.800638    H 
atom    10.888926     0.986823     1.994542    O 
atom    12.067320     1.702593     2.104877    C 
atom    11.940653     2.772130     2.213713    H 
atom    13.100205     0.821588     2.043113    C 
atom    14.532185     0.307017     2.029557    C 
atom    15.095913     0.456573     2.959436    H 
atom    15.148276     0.646536     1.186929    H 
atom    13.917514    -1.145259     1.856437    C 
atom    14.128764    -1.833354     2.685232    H 
atom    14.177227    -1.641577     0.912479    H 
atom    12.549191    -0.480102     1.889444    C 
atom    11.196245    -0.355018     1.862035    C 
atom    10.340000    -1.010587     1.767739    H 
#structure number = 50
#Z = 2 , spg = 6
#struct_id = target1_2mpc_8d44bccb25
lattice_vector     6.226932     0.000000     0.000000 
lattice_vector     0.000000    15.238460     0.000000 
lattice_vector     4.290473     0.000000     2.563419 
atom     5.919988     5.610044     0.958477    O 
atom     5.263111     4.846148     0.010801    C 
atom     4.919772     5.395112    -0.856698    H 
atom     5.232231     3.562297     0.455340    C 
atom     4.932292     2.070597     0.475287    C 
atom     5.421538     1.480598    -0.310443    H 
atom     3.868142     1.802991     0.504194    H 
atom     5.662863     2.030039     1.882951    C 
atom     6.571741     1.415018     1.909256    H 
atom     5.018745     1.741694     2.723670    H 
atom     5.888306     3.525771     1.716237    C 
atom     6.300263     4.788463     2.003914    C 
atom     6.826591     5.288337     2.806986    H 
atom     5.919988     9.628415     0.958477    O 
atom     5.263111    10.392312     0.010801    C 
atom     4.919772     9.843348    -0.856698    H 
atom     5.232231    11.676162     0.455340    C 
atom     4.932292    13.167862     0.475287    C 
atom     5.421538    13.757861    -0.310443    H 
atom     3.868142    13.435469     0.504194    H 
atom     5.662863    13.208421     1.882951    C 
atom     6.571741    13.823442     1.909256    H 
atom     5.018745    13.496766     2.723670    H 
atom     5.888306    11.712688     1.716237    C 
atom     6.300263    10.449997     2.003914    C 
atom     6.826591     9.950123     2.806986    H 
#structure number = 19
#Z = 2 , spg = 2
lattice_vector     2.785401     0.000000     0.000000 
lattice_vector    -0.703994    21.687262     0.000000 
lattice_vector    18.798748    15.891706     2.704447 
atom    16.476315    24.084454     0.522545    O 
atom    15.597759    23.016552     0.493444    C 
atom    15.030025    22.920263    -0.423183    H 
atom    15.699104    22.358028     1.677891    C 
atom    15.429845    21.316372     2.753988    C 
atom    15.697319    20.285158     2.489636    H 
atom    14.414668    21.319841     3.171430    H 
atom    16.509991    22.073278     3.635622    C 
atom    17.398834    21.477800     3.881315    H 
atom    16.116472    22.515446     4.559995    H 
atom    16.668245    23.035582     2.467393    C 
atom    17.129782    24.087593     1.741363    C 
atom    17.846489    24.888409     1.871131    H 
atom     4.403841    13.494514     2.181902    O 
atom     5.282396    14.562415     2.211003    C 
atom     5.850130    14.658704     3.127629    H 
atom     5.181052    15.220938     1.026556    C 
atom     5.450311    16.262594    -0.049541    C 
atom     5.182836    17.293810     0.214810    H 
atom     6.465488    16.259127    -0.466984    H 
atom     4.370164    15.505688    -0.931175    C 
atom     3.481322    16.101166    -1.176868    H 
atom     4.763684    15.063521    -1.855548    H 
atom     4.211911    14.543385     0.237054    C 
atom     3.750374    13.491375     0.963083    C 
atom     3.033666    12.690559     0.833316    H 
#structure number = 52
#Z = 2 , spg = 4
#struct_id = target1_2mpc_b512cd88f0
[...]
atom     3.927533     9.315315     2.023957    H 
#structure number = 487
#Z = 2 , spg = 7
#struct_id = target1_2mpc_f30aa989f0
lattice_vector     5.934585     0.000000     0.000000 
lattice_vector     0.000000     4.631806     0.000000 
lattice_vector    14.606125     0.000000    10.175961 
atom     6.471992     4.795685     3.005724    O 
atom     6.219689     3.671636     2.240237    C 
atom     7.078992     3.280352     1.710809    H 
atom     4.903744     3.359948     2.374315    C 
atom     3.591768     2.613604     2.181387    C 
atom     3.575618     1.582905     2.558520    H 
atom     3.190333     2.620065     1.159784    H 
atom     2.939686     3.683140     3.154926    C 
atom     2.545730     3.268765     4.091992    H 
atom     2.164227     4.307984     2.693329    H 
atom     4.319738     4.317668     3.248006    C 
atom     5.296604     5.185532     3.621373    C 
atom     5.381633     6.062715     4.249975    H 
atom    13.775056    -0.163879     8.093704    O 
atom    13.522751     0.960170     7.328216    C 
atom    14.382055     1.351454     6.798789    H 
atom    12.206806     1.271858     7.462294    C 
atom    10.894830     2.018202     7.269367    C 
atom    10.878680     3.048901     7.646501    H 
atom    10.493396     2.011740     6.247765    H 
atom    10.242750     0.948666     8.242907    C 
atom     9.848791     1.363041     9.179973    H 
atom     9.467289     0.323822     7.781309    H 
atom    11.622802     0.314138     8.335986    C 
atom    12.599665    -0.553726     8.709354    C 
atom    12.684697    -1.430909     9.337955    H 
#structure number = 488
#Z = 2 , spg = 3
#struct_id = target1_2mpc_b573284c7f
lattice_vector     9.833338     0.000000     0.000000 
lattice_vector     0.000000     6.070321     0.000000 
lattice_vector     0.858564     0.000000     2.742137 
atom     7.294485     1.420532    -0.788070    O 
atom     6.193737     2.222953    -0.548097    C 
atom     5.244758     1.791288    -0.839472    H 
atom     6.633069     3.380612     0.011951    C 
atom     6.584598     4.773569     0.622567    C 
atom     6.055464     4.850151     1.581205    H 
atom     6.223346     5.568637    -0.042433    H 
atom     8.163577     4.680878     0.745558    C 
atom     8.544681     4.706299     1.774691    H 
atom     8.712377     5.421000     0.149003    H 
atom     8.048049     3.296852     0.123499    C 
atom     8.430442     2.090462    -0.371734    C 
atom     9.356360     1.548167    -0.514597    H 
atom     3.397417     1.420532     3.530207    O 
atom     4.498165     2.222953     3.290234    C 
atom     5.447144     1.791288     3.581610    H 
atom     4.058833     3.380612     2.730186    C 
atom     4.107304     4.773569     2.119570    C 
atom     4.636438     4.850151     1.160932    H 
atom     4.468555     5.568637     2.784570    H 
atom     2.528325     4.680878     1.996580    C 
atom     2.147221     4.706299     0.967446    H 
atom     1.979525     5.421000     2.593134    H 
atom     2.643853     3.296852     2.618638    C 
atom     2.261459     2.090462     3.113871    C 
atom     1.335541     1.548167     3.256734    H 
#structure number = 20
#Z = 2 , spg = 2
lattice_vector    15.423055     0.000000     0.000000 
lattice_vector    -0.005811     4.847115     0.000000 
lattice_vector     4.040352    -0.455095     3.105730 
atom    13.797600     2.169618     2.708549    O 
atom    12.892136     1.154545     2.457805    C 
atom    12.669689     0.523765     3.308940    H 
atom    12.518945     1.238440     1.153762    C 
atom    11.806261     0.897356    -0.146728    C 
atom    10.714162     1.006094    -0.128623    H 
atom    12.054686    -0.080437    -0.579244    H 
atom    12.581076     2.122089    -0.792166    C 
atom    11.935674     2.935594    -1.148070    H 
atom    13.278281     1.849554    -1.594954    H 
atom    13.212271     2.337005     0.575765    C 
atom    13.988083     2.891142     1.544220    C 
atom    14.683691     3.716218     1.629067    H 
atom     5.659997     2.222401     0.397181    O 
atom     6.565460     3.237475     0.647925    C 
atom     6.787908     3.868255    -0.203210    H 
atom     6.938653     3.153579     1.951968    C 
atom     7.651335     3.494664     3.252458    C 
atom     8.743435     3.385926     3.234352    H 
atom     7.402911     4.472456     3.684974    H 
atom     6.876520     2.269931     3.897895    C 
atom     7.521923     1.456425     4.253799    H 
atom     6.179316     2.542465     4.700684    H 
atom     6.245325     2.055015     2.529964    C 
atom     5.469513     1.500878     1.561510    C 
atom     4.773905     0.675802     1.476663    H 
#structure number = 490
#Z = 2 , spg = 4
#struct_id = target1_2mpc_83f8589145
lattice_vector     8.790337     0.000000     0.000000 
lattice_vector     0.000000     3.383981     0.000000 
lattice_vector    11.259937     0.000000     8.807303 
atom     7.963783     0.473832     0.344278    O 
atom     8.698448     0.887033     1.440930    C 
atom     9.764822     0.717907     1.363188    H 
atom     7.835567     1.413580     2.349235    C 
atom     7.344914     2.064587     3.634140    C 
atom     7.698061     3.089155     3.808438    H 
atom     7.500146     1.479137     4.549572    H 
atom     5.883418     1.964634     3.025096    C 
atom     5.393349     2.931246     2.850467    H 
atom     5.197113     1.319118     3.588242    H 
atom     6.525937     1.325308     1.802695    C 
atom     6.628301     0.747530     0.576908    C 
atom     5.959166     0.462150    -0.224737    H 
atom    12.086491     2.165822     8.463025    O 
atom    11.351826     2.579023     7.366374    C 
atom    10.285453     2.409898     7.444116    H 
atom    12.214707     3.105571     6.458068    C 
atom    12.705359     3.756577     5.173163    C 
atom    12.352213     4.781146     4.998866    H 
atom    12.550128     3.171128     4.257732    H 
atom    14.166857     3.656625     5.782207    C 
atom    14.656924     4.623237     5.956836    H 
atom    14.853161     3.011108     5.219061    H 
atom    13.524337     3.017298     7.004609    C 
atom    13.421974     2.439520     8.230395    C 
atom    14.091108     2.154140     9.032041    H 
#structure number = 491
#Z = 2 , spg = 6
#struct_id = target1_2mpc_6828924b14
lattice_vector     3.553445     0.000000     0.000000 
lattice_vector     0.000000    16.082899     0.000000 
lattice_vector    -4.786810     0.000000     4.729886 
atom    -1.417067    13.283524     2.795697    O 
atom    -2.202042    12.798385     1.765373    C 
atom    -2.200346    13.404857     0.868720    H 
atom    -2.781064    11.643681     2.187546    C 
atom    -3.636543    10.385714     2.152793    C 
atom    -3.325580     9.623799     1.426418    H 
atom    -4.716462    10.551515     2.047223    H 
atom    -3.150765    10.118075     3.639160    C 
atom    -2.561860     9.200973     3.769979    H 
atom    -3.950687    10.132471     4.390663    H 
atom    -2.344481    11.403118     3.519144    C 
atom    -1.511829    12.418139     3.870255    C 
atom    -0.931577    12.705083     4.737889    H 
atom    -1.417067     2.799376     2.795697    O 
atom    -2.202042     3.284515     1.765373    C 
atom    -2.200346     2.678043     0.868720    H 
atom    -2.781064     4.439219     2.187546    C 
atom    -3.636543     5.697185     2.152793    C 
atom    -3.325580     6.459099     1.426418    H 
atom    -4.716462     5.531385     2.047223    H 
atom    -3.150765     5.964824     3.639160    C 
atom    -2.561860     6.881927     3.769979    H 
atom    -3.950687     5.950428     4.390663    H 
atom    -2.344481     4.679780     3.519144    C 
atom    -1.511829     3.664759     3.870255    C 
atom    -0.931577     3.377816     4.737889    H 
#structure number = 492
#Z = 2 , spg = 4
#struct_id = target1_2mpc_93fd67835f
lattice_vector     6.320386     0.000000     0.000000 
lattice_vector     0.000000     6.764196     0.000000 
lattice_vector    -0.257963     0.000000     3.461776 
atom     7.786068     1.898538     0.844333    O 
atom     7.059396     0.726768     0.734723    C 
atom     7.656730    -0.170847     0.638411    H 
atom     5.739331     1.046310     0.781180    C 
atom     4.229255     0.858732     0.776653    C 
atom     3.822582     0.286190     1.620243    H 
atom     3.805340     0.461101    -0.154501    H 
atom     4.119609     2.433609     0.933611    C 
atom     3.647822     2.768770     1.866395    H 
atom     3.634868     2.943889     0.091305    H 
atom     5.641171     2.457616     0.923335    C 
atom     6.904300     2.957672     0.959501    C 
atom     7.370965     3.930027     1.052054    H 
atom    -1.723645     5.280637     2.617443    O 
atom    -0.996973     4.108867     2.727053    C 
atom    -1.594306     3.211251     2.823365    H 
atom     0.323093     4.428409     2.680596    C 
atom     1.833168     4.240830     2.685122    C 
atom     2.239841     3.668288     1.841532    H 
atom     2.257083     3.843199     3.616277    H 
atom     1.942814     5.815708     2.528165    C 
atom     2.414602     6.150868     1.595381    H 
atom     2.427555     6.325987     3.370471    H 
atom     0.421253     5.839715     2.538440    C 
atom    -0.841876     6.339770     2.502275    C 
atom    -1.308541     7.312125     2.409721    H 
#structure number = 493
#Z = 2 , spg = 3
#struct_id = target1_2mpc_10f8dc5c6f
lattice_vector    17.158316     0.000000     0.000000 
lattice_vector     0.000000     5.734764     0.000000 
lattice_vector    -3.795881     0.000000     2.950740 
atom    10.891282     3.723871    -0.603483    O 
atom    10.997236     2.362547    -0.382837    C 
atom    10.165059     1.776510    -0.751402    H 
atom    12.170132     2.132815     0.263984    C 
atom    13.289232     1.363243     0.950211    C 
atom    13.839186     0.660476     0.311069    H 
atom    13.008577     0.848262     1.878054    H 
atom    14.005589     2.762930     1.161421    C 
atom    14.969280     2.866158     0.646016    H 
atom    14.135200     3.055838     2.211300    H 
atom    12.812773     3.387137     0.451920    C 
atom    12.013061     4.345325    -0.085850    C 
atom    12.033118     5.421006    -0.205550    H 
atom     2.471152     3.723871     3.554223    O 
atom     2.365198     2.362547     3.333577    C 
atom     3.197374     1.776510     3.702142    H 
atom     1.192302     2.132815     2.686755    C 
atom     0.073202     1.363243     2.000528    C 
atom    -0.476751     0.660476     2.639670    H 
atom     0.353856     0.848262     1.072686    H 
atom    -0.643154     2.762930     1.789319    C 
atom    -1.606846     2.866158     2.304724    H 
atom    -0.772765     3.055838     0.739440    H 
atom     0.549661     3.387137     2.498820    C 
atom     1.349373     4.345325     3.036590    C 
atom     1.329316     5.421006     3.156290    H 
#structure number = 494
#Z = 2 , spg = 3
#struct_id = target1_2mpc_e7bf070806
lattice_vector    16.699215     0.000000     0.000000 
lattice_vector     0.000000     3.840559     0.000000 
lattice_vector    -0.198515     0.000000     4.365424 
atom    13.142137     3.967025     1.089232    O 
atom    11.974558     3.283256     1.376179    C 
atom    11.158330     3.470276     0.690183    H 
atom    12.190240     2.534315     2.489466    C 
atom    11.908165     1.567775     3.630416    C 
atom    11.691061     0.534479     3.330423    H 
atom    11.143353     1.893377     4.347291    H 
atom    13.403029     1.819128     4.098497    C 
atom    14.046865     0.930482     4.070486    H 
atom    13.499521     2.292303     5.084212    H 
atom    13.530447     2.758505     2.908048    C 
atom    14.093105     3.637633     2.037757    C 
atom    15.052803     4.120954     1.906589    H 
atom     3.358564     3.967025     3.276191    O 
atom     4.526142     3.283256     2.989244    C 
atom     5.342371     3.470276     3.675241    H 
atom     4.310461     2.534315     1.875958    C 
atom     4.592535     1.567775     0.735008    C 
atom     4.809640     0.534479     1.035001    H 
atom     5.357347     1.893377     0.018132    H 
atom     3.097671     1.819128     0.266926    C 
atom     2.453836     0.930482     0.294937    H 
atom     3.001179     2.292303    -0.718788    H 
atom     2.970253     2.758505     1.457376    C 
atom     2.407595     3.637633     2.327666    C 
atom     1.447898     4.120954     2.458835    H 
#structure number = 495
#Z = 2 , spg = 4
#struct_id = target1_2mpc_b326ec748d
lattice_vector     7.425305     0.000000     0.000000 
lattice_vector     0.000000    10.319577     0.000000 
lattice_vector     4.601901     0.000000     3.161724 
atom     3.521120     3.041429    -0.454164    O 
atom     4.120879     3.052461     0.792143    C 
atom     4.782437     2.217696     0.985292    H 
atom     3.691631     4.159001     1.454076    C 
atom     3.542200     5.178094     2.574189    C 
atom     4.453673     5.732752     2.831876    H 
atom     3.087719     4.800273     3.499155    H 
atom     2.544460     5.955894     1.616882    C 
atom     2.879632     6.959513     1.324632    H 
atom     1.514075     6.023810     1.989083    H 
atom     2.798587     4.856801     0.595487    C 
atom     2.709271     4.155488    -0.565134    C 
atom     2.187796     4.246037    -1.509424    H 
atom     8.506085     8.201218     3.615888    O 
atom     7.906326     8.212251     2.369581    C 
atom     7.244768     7.377485     2.176432    H 
atom     8.335575     9.318789     1.707648    C 
atom     8.485004    10.337882     0.587535    C 
atom     7.573533    10.892540     0.329849    H 
atom     8.939486     9.960062    -0.337431    H 
atom     9.482745    11.115682     1.544842    C 
atom     9.147573    12.119303     1.837092    H 
atom    10.513130    11.183599     1.172641    H 
atom     9.228619    10.016589     2.566237    C 
atom     9.317934     9.315278     3.726858    C 
atom     9.839409     9.405825     4.671148    H 
#structure number = 496
#Z = 2 , spg = 6
#struct_id = target1_2mpc_09ce7a0f0a
lattice_vector     6.410868     0.000000     0.000000 
lattice_vector     0.000000    14.876010     0.000000 
lattice_vector     3.042760     0.000000     3.100652 
atom     6.224467     1.596984     0.516182    O 
atom     4.993317     2.192853     0.310459    C 
atom     4.164692     1.502698     0.216310    H 
atom     5.178427     3.538900     0.283414    C 
atom     4.843172     5.019007     0.171971    C 
atom     4.193486     5.416258     0.962498    H 
atom     4.450774     5.342627    -0.800735    H 
atom     6.390190     5.297388     0.386769    C 
atom     6.632021     5.856914     1.299704    H 
atom     6.889956     5.779026    -0.463583    H 
atom     6.564704     3.788361     0.477404    C 
atom     7.184661     2.587121     0.617178    C 
atom     8.192760     2.228136     0.780533    H 
atom     6.224467    13.279026     0.516182    O 
atom     4.993317    12.683156     0.310459    C 
atom     4.164692    13.373312     0.216310    H 
atom     5.178427    11.337110     0.283414    C 
atom     4.843172     9.857002     0.171971    C 
atom     4.193486     9.459753     0.962498    H 
atom     4.450774     9.533382    -0.800735    H 
atom     6.390190     9.578622     0.386769    C 
atom     6.632021     9.019096     1.299704    H 
atom     6.889956     9.096985    -0.463583    H 
atom     6.564704    11.087649     0.477404    C 
atom     7.184661    12.288889     0.617178    C 
atom     8.192760    12.647874     0.780533    H 
#structure number = 18
#Z = 2 , spg = 2
lattice_vector    12.369663     0.000000     0.000000 
lattice_vector    -4.059871     6.557235     0.000000 
lattice_vector    -2.366408     0.860017     2.849538 
atom     4.372346     9.123901     0.915501    O 
atom     3.578438     8.234617     0.214074    C 
atom     3.244266     8.588953    -0.752658    H 
atom     3.434754     7.114586     0.970199    C 
atom     2.975126     5.722237     1.377185    C 
atom     3.347303     4.900961     0.751227    H 
atom     1.891916     5.601503     1.507335    H 
atom     3.782527     5.943383     2.724812    C 
atom     4.618490     5.248336     2.876726    H 
atom     3.163954     5.952891     3.631519    H 
atom     4.159610     7.312282     2.177314    C 
atom     4.724325     8.547156     2.122157    C 
atom     5.350867     9.162700     2.754901    H 
atom     1.571038    -1.706650     1.934037    O 
atom     2.364945    -0.817366     2.635464    C 
atom     2.699117    -1.171701     3.602196    H 
atom     2.508630     0.302665     1.879339    C 
atom     2.968257     1.695014     1.472353    C 
atom     2.596082     2.516290     2.098311    H 
atom     4.051468     1.815748     1.342203    H 
atom     2.160858     1.473869     0.124726    C 
atom     1.324894     2.168915    -0.027188    H 
atom     2.779429     1.464361    -0.781981    H 
atom     1.783774     0.104969     0.672224    C 
atom     1.219059    -1.129905     0.727381    C 
atom     0.592517    -1.745448     0.094637    H 
#structure number = 3
#Z = 2 , spg = 2
lattice_vector    20.962086     0.000000     0.000000 
lattice_vector    -4.399692     2.936909     0.000000 
lattice_vector     7.567167    -0.219142     4.494002 
atom     2.998494    -0.215307     1.039825    O 
atom     3.626837     0.210180    -0.116573    C 
atom     4.030993    -0.583203    -0.732203    H 
atom     3.556731     1.566757    -0.156853    C 
atom     3.752254     2.986790    -0.667545    C 
atom     3.245208     3.222294    -1.612147    H 
atom     4.794180     3.325610    -0.734298    H 
atom     2.982208     3.468648     0.633123    C 
atom     2.032640     3.983769     0.438259    H 
atom     3.581516     4.082984     1.317420    H 
atom     2.865288     1.998434     1.008132    C 
atom     2.533782     0.892480     1.724949    C 
atom     2.021364     0.671645     2.652568    H 
atom    21.131067     2.933075     3.454177    O 
atom    20.502724     2.507588     4.610575    C 
atom    20.098568     3.300970     5.226205    H 
atom    20.572830     1.151011     4.650856    C 
atom    20.377306    -0.269023     5.161548    C 
atom    20.884354    -0.504527     6.106150    H 
atom    19.335381    -0.607842     5.228301    H 
atom    21.147354    -0.750881     3.860880    C 
atom    22.096924    -1.266002     4.055743    H 
atom    20.548046    -1.365216     3.176583    H 
atom    21.264275     0.719334     3.485871    C 
atom    21.595779     1.825288     2.769053    C 
atom    22.108200     2.046123     1.841434    H 
#structure number = 499
#Z = 2 , spg = 3
#struct_id = target1_2mpc_bb954ddc99
lattice_vector    13.180200     0.000000     0.000000 
lattice_vector     0.000000     4.516469     0.000000 
lattice_vector     3.192891     0.000000     5.594964 
atom    12.559268     0.650592     1.921114    O 
atom    11.934218     0.828494     3.142088    C 
atom    11.117990     0.145096     3.338394    H 
atom    12.548820     1.858182     3.781500    C 
atom    12.854940     2.877780     4.868809    C 
atom    13.201580     2.460158     5.822886    H 
atom    12.058251     3.604864     5.072519    H 
atom    14.011237     3.411475     3.922741    C 
atom    15.023970     3.303597     4.332299    H 
atom    13.879305     4.445511     3.578934    H 
atom    13.586057     2.335469     2.934173    C 
atom    13.573845     1.582870     1.802668    C 
atom    14.132486     1.532004     0.876843    H 
atom     3.813823     0.650592     3.673850    O 
atom     4.438873     0.828494     2.452875    C 
atom     5.255101     0.145096     2.256570    H 
atom     3.824271     1.858182     1.813463    C 
atom     3.518150     2.877780     0.726155    C 
atom     3.171510     2.460158    -0.227923    H 
atom     4.314839     3.604864     0.522444    H 
atom     2.361854     3.411475     1.672223    C 
atom     1.349121     3.303597     1.262664    H 
atom     2.493786     4.445511     2.016029    H 
atom     2.787034     2.335469     2.660791    C 
atom     2.799246     1.582870     3.792296    C 
atom     2.240604     1.532004     4.718121    H 
