------------------------------------------------------------
          Invoking FHI-aims ...
          Version 190522
          Compiled on 2019/10/10 at 22:48:22 on host coe.psc.edu.

          When using FHI-aims, please cite the following reference:

          Volker Blum, Ralf Gehrke, Felix Hanke, Paula Havu,
          Ville Havu, Xinguo Ren, Karsten Reuter, and Matthias Scheffler,
          'Ab Initio Molecular Simulations with Numeric Atom-Centered Orbitals',
          Computer Physics Communications 180, 2175-2196 (2009)

          For any questions about FHI-aims, please visit the aimsclub website
          with its forums and wiki. Contributions to both the forums and the
          wiki are warmly encouraged - they are for you, and everyone is welcome there.

------------------------------------------------------------



  Date     :  20191215, Time     :  143247.065
  Time zero on CPU 1             :   0.434034919000000E+03  s.
  Internal wall clock time zero  :           345652367.065  s.

  FHI-aims created a unique identifier for this run for later identification
  aims_uuid : 40D74B84-BD96-4D70-A23B-476D50CF73B4

  Using       55 parallel tasks.
  Task        0 on host e001 reporting.
  Task        1 on host e001 reporting.
  Task        2 on host e001 reporting.
  Task        3 on host e001 reporting.
  Task        4 on host e001 reporting.
  Task        5 on host e001 reporting.
  Task        6 on host e001 reporting.
  Task        7 on host e001 reporting.
  Task        8 on host e001 reporting.
  Task        9 on host e001 reporting.
  Task       10 on host e001 reporting.
  Task       11 on host e001 reporting.
  Task       12 on host e001 reporting.
  Task       13 on host e001 reporting.
  Task       14 on host e001 reporting.
  Task       15 on host e001 reporting.
  Task       16 on host e001 reporting.
  Task       17 on host e001 reporting.
  Task       18 on host e001 reporting.
  Task       19 on host e001 reporting.
  Task       20 on host e001 reporting.
  Task       21 on host e001 reporting.
  Task       22 on host e001 reporting.
  Task       23 on host e001 reporting.
  Task       24 on host e001 reporting.
  Task       25 on host e001 reporting.
  Task       26 on host e001 reporting.
  Task       27 on host e001 reporting.
  Task       28 on host e001 reporting.
  Task       29 on host e001 reporting.
  Task       30 on host e001 reporting.
  Task       31 on host e001 reporting.
  Task       32 on host e001 reporting.
  Task       33 on host e001 reporting.
  Task       34 on host e001 reporting.
  Task       35 on host e001 reporting.
  Task       36 on host e001 reporting.
  Task       37 on host e001 reporting.
  Task       38 on host e001 reporting.
  Task       39 on host e001 reporting.
  Task       40 on host e001 reporting.
  Task       41 on host e001 reporting.
  Task       42 on host e001 reporting.
  Task       43 on host e001 reporting.
  Task       44 on host e001 reporting.
  Task       45 on host e001 reporting.
  Task       46 on host e001 reporting.
  Task       47 on host e001 reporting.
  Task       48 on host e001 reporting.
  Task       49 on host e001 reporting.
  Task       50 on host e001 reporting.
  Task       51 on host e001 reporting.
  Task       52 on host e001 reporting.
  Task       53 on host e001 reporting.
  Task       54 on host e001 reporting.

  Performing system and environment tests:
  | Environment variable OMP_NUM_THREADS correctly set to 1.
  | Maximum stacksize for task 0: unlimited
  | Maximum stacksize for task 1: unlimited
  | Maximum stacksize for task 2: unlimited
  | Maximum stacksize for task 3: unlimited
  | Maximum stacksize for task 4: unlimited
  | Maximum stacksize for task 5: unlimited
  | Maximum stacksize for task 6: unlimited
  | Maximum stacksize for task 7: unlimited
  | Maximum stacksize for task 8: unlimited
  | Maximum stacksize for task 9: unlimited
  | Maximum stacksize for task 10: unlimited
  | Maximum stacksize for task 11: unlimited
  | Maximum stacksize for task 12: unlimited
  | Maximum stacksize for task 13: unlimited
  | Maximum stacksize for task 14: unlimited
  | Maximum stacksize for task 15: unlimited
  | Maximum stacksize for task 16: unlimited
  | Maximum stacksize for task 17: unlimited
  | Maximum stacksize for task 18: unlimited
  | Maximum stacksize for task 19: unlimited
  | Maximum stacksize for task 20: unlimited
  | Maximum stacksize for task 21: unlimited
  | Maximum stacksize for task 22: unlimited
  | Maximum stacksize for task 23: unlimited
  | Maximum stacksize for task 24: unlimited
  | Maximum stacksize for task 25: unlimited
  | Maximum stacksize for task 26: unlimited
  | Maximum stacksize for task 27: unlimited
  | Maximum stacksize for task 28: unlimited
  | Maximum stacksize for task 29: unlimited
  | Maximum stacksize for task 30: unlimited
  | Maximum stacksize for task 31: unlimited
  | Maximum stacksize for task 32: unlimited
  | Maximum stacksize for task 33: unlimited
  | Maximum stacksize for task 34: unlimited
  | Maximum stacksize for task 35: unlimited
  | Maximum stacksize for task 36: unlimited
  | Maximum stacksize for task 37: unlimited
  | Maximum stacksize for task 38: unlimited
  | Maximum stacksize for task 39: unlimited
  | Maximum stacksize for task 40: unlimited
  | Maximum stacksize for task 41: unlimited
  | Maximum stacksize for task 42: unlimited
  | Maximum stacksize for task 43: unlimited
  | Maximum stacksize for task 44: unlimited
  | Maximum stacksize for task 45: unlimited
  | Maximum stacksize for task 46: unlimited
  | Maximum stacksize for task 47: unlimited
  | Maximum stacksize for task 48: unlimited
  | Maximum stacksize for task 49: unlimited
  | Maximum stacksize for task 50: unlimited
  | Maximum stacksize for task 51: unlimited
  | Maximum stacksize for task 52: unlimited
  | Maximum stacksize for task 53: unlimited
  | Maximum stacksize for task 54: unlimited
  | Current stacksize for task 0: unlimited
  | Current stacksize for task 1: unlimited
  | Current stacksize for task 2: unlimited
  | Current stacksize for task 3: unlimited
  | Current stacksize for task 4: unlimited
  | Current stacksize for task 5: unlimited
  | Current stacksize for task 6: unlimited
  | Current stacksize for task 7: unlimited
  | Current stacksize for task 8: unlimited
  | Current stacksize for task 9: unlimited
  | Current stacksize for task 10: unlimited
  | Current stacksize for task 11: unlimited
  | Current stacksize for task 12: unlimited
  | Current stacksize for task 13: unlimited
  | Current stacksize for task 14: unlimited
  | Current stacksize for task 15: unlimited
  | Current stacksize for task 16: unlimited
  | Current stacksize for task 17: unlimited
  | Current stacksize for task 18: unlimited
  | Current stacksize for task 19: unlimited
  | Current stacksize for task 20: unlimited
  | Current stacksize for task 21: unlimited
  | Current stacksize for task 22: unlimited
  | Current stacksize for task 23: unlimited
  | Current stacksize for task 24: unlimited
  | Current stacksize for task 25: unlimited
  | Current stacksize for task 26: unlimited
  | Current stacksize for task 27: unlimited
  | Current stacksize for task 28: unlimited
  | Current stacksize for task 29: unlimited
  | Current stacksize for task 30: unlimited
  | Current stacksize for task 31: unlimited
  | Current stacksize for task 32: unlimited
  | Current stacksize for task 33: unlimited
  | Current stacksize for task 34: unlimited
  | Current stacksize for task 35: unlimited
  | Current stacksize for task 36: unlimited
  | Current stacksize for task 37: unlimited
  | Current stacksize for task 38: unlimited
  | Current stacksize for task 39: unlimited
  | Current stacksize for task 40: unlimited
  | Current stacksize for task 41: unlimited
  | Current stacksize for task 42: unlimited
  | Current stacksize for task 43: unlimited
  | Current stacksize for task 44: unlimited
  | Current stacksize for task 45: unlimited
  | Current stacksize for task 46: unlimited
  | Current stacksize for task 47: unlimited
  | Current stacksize for task 48: unlimited
  | Current stacksize for task 49: unlimited
  | Current stacksize for task 50: unlimited
  | Current stacksize for task 51: unlimited
  | Current stacksize for task 52: unlimited
  | Current stacksize for task 53: unlimited
  | Current stacksize for task 54: unlimited
  | Checking for scalapack...
  | Testing pdtran()...
  | All pdtran() tests passed.

  Obtaining array dimensions for all initial allocations:
  
  -----------------------------------------------------------------------
  Parsing control.in (first pass over file, find array dimensions only).
  The contents of control.in will be repeated verbatim below
  unless switched off by setting 'verbatim_writeout .false.' .
  in the first line of control.in .
  -----------------------------------------------------------------------
  
    #########################################################################################
    #
    #   input file control.in tight for scaling studies
    #
    #########################################################################################
    #
    #  Physical model
    #
      xc                 pbe
      spin               none
      relativistic       none
      override_relativity .true.
      charge             0.
    #
    #  SCF convergence
    #
      occupation_type    gaussian 0.1
      mixer              pulay
        n_max_pulay        10
        charge_mix_param   0.3
      sc_accuracy_rho    1E-4
      sc_accuracy_eev    1E-2
      sc_accuracy_etot   1E-4
      sc_accuracy_forces 1E-2
      sc_iter_limit      1000
  harmonic_length_scale 0.02
  energy_tolerance 5E-3
  
   postprocess_anyway            .true.
  #    restart restart_file
    #KS_method scalapack_old
    #KS_method serial also works
   hessian_to_restart_geometry     .false.
  
    #
    #
    #  Eigenvalue solution
      #KS_method  lapack
    #  partition_type rho_r2 ## !! use only if on BG you run into an unexpected
    #memory shortage per processor!!
  
    #
    #  accuracy / efficiency for normal scf
    #
    #  density_update_method density_matrix
    #  collect_eigenvectors .false.
    #  empty_states     3 ## This is the setting for light elements. Careful!!
    #
    #  use_local_index .true.
    ##  load_balancing .true.
    #  distributed_spline_storage .false.  ## Helps save memory but may hurt your
    #  performance. Test effect for VERY MANY CPUs.
    #
    #  For periodic boundary conditions
    #
        k_grid 3 3 3
    #    output k_eigenvalue 1
  
    #
    #  Relaxation
    #
    #  restart_relaxations .true.
     relax_geometry   bfgs 1.e-2
      vdw_correction_hirshfeld
  relax_unit_cell full
    #  output Hirshfeld-I
    #
    ################################################################################
    ################################################################################
    #
    #  FHI-aims code project
    #  VB, Fritz-Haber Institut, 2009
    #
    #  Suggested "light" defaults for H atom (to be pasted into control.in file)
    #  Be sure to double-check any results obtained with these settings for post-processing,
    #  e.g., with the "tight" defaults and larger basis sets.
    #
    ################################################################################
      species        H
    #     global species definitions
        nucleus             1
        mass                1.00794
    #
        l_hartree           4
    #
        cut_pot             3.5  1.5  1.0
        basis_dep_cutoff    1e-4
    #
        radial_base         24 5.0
        radial_multiplier   1
        angular_grids       specified
          division   0.2421   50
          division   0.3822  110
          division   0.4799  194
          division   0.5341  302
    #      division   0.5626  434
    #      division   0.5922  590
    #      division   0.6542  770
    #      division   0.6868 1202
    #      outer_grid  770
          outer_grid  302
    ################################################################################
    #
    #  Definition of "minimal" basis
    #
    ################################################################################
    #     valence basis states
        valence      1  s   1.
    #     ion occupancy
        ion_occ      1  s   0.5
    ################################################################################
    #
    #  Suggested additional basis functions. For production calculations,
    #  uncomment them one after another (the most important basis functions are
    #  listed first).
    #
    #  Basis constructed for dimers: 0.5 A, 0.7 A, 1.0 A, 1.5 A, 2.5 A
    #
    ################################################################################
    #  "First tier" - improvements: -1014.90 meV to -62.69 meV
         hydro 2 s 2.1
         hydro 2 p 3.5
    #  "Second tier" - improvements: -12.89 meV to -1.83 meV
    #     hydro 1 s 0.85
    #     hydro 2 p 3.7
    #     hydro 2 s 1.2
    #     hydro 3 d 7
    #  "Third tier" - improvements: -0.25 meV to -0.12 meV
    #     hydro 4 f 11.2
    #     hydro 3 p 4.8
    #     hydro 4 d 9
    #     hydro 3 s 3.2
    ################################################################################
    #
    #  FHI-aims code project
    #  VB, Fritz-Haber Institut, 2009
    #
    #  Suggested "light" defaults for C atom (to be pasted into control.in file)
    #  Be sure to double-check any results obtained with these settings for post-processing,
    #  e.g., with the "tight" defaults and larger basis sets.
    #
    ################################################################################
      species        C
    #     global species definitions
        nucleus             6
        mass                12.0107
    #
        l_hartree           4
    #
        cut_pot             3.5  1.5  1.0
        basis_dep_cutoff    1e-4
    #
        radial_base         34 5.0
        radial_multiplier   1
        angular_grids specified
          division   0.3326   50
          division   0.5710  110
          division   0.7727  194
          division   0.8772  302
    #      division   0.9334  434
    #      division   0.9625  590
    #      division   0.9924  770
    #      division   1.0230  974
    #      division   1.4589 1202
    #     outer_grid  974
         outer_grid 302
    ################################################################################
    #
    #  Definition of "minimal" basis
    #
    ################################################################################
    #     valence basis states
        valence      2  s   2.
        valence      2  p   2.
    #     ion occupancy
        ion_occ      2  s   1.
        ion_occ      2  p   1.
    ################################################################################
    #
    #  Suggested additional basis functions. For production calculations,
    #  uncomment them one after another (the most important basis functions are
    #  listed first).
    #
    #  Constructed for dimers: 1.0 A, 1.25 A, 1.5 A, 2.0 A, 3.0 A
    #
    ################################################################################
    #  "First tier" - improvements: -1214.57 meV to -155.61 meV
         hydro 2 p 1.7
         hydro 3 d 6
         hydro 2 s 4.9
    #  "Second tier" - improvements: -67.75 meV to -5.23 meV
    #     hydro 4 f 9.8
    #     hydro 3 p 5.2
    #     hydro 3 s 4.3
    #     hydro 5 g 14.4
    #     hydro 3 d 6.2
    #  "Third tier" - improvements: -2.43 meV to -0.60 meV
    #     hydro 2 p 5.6
    #     hydro 2 s 1.4
    #     hydro 3 d 4.9
    #     hydro 4 f 11.2
    #  "Fourth tier" - improvements: -0.39 meV to -0.18 meV
    #     hydro 2 p 2.1
    #     hydro 5 g 16.4
    #     hydro 4 d 13.2
    #     hydro 3 s 13.6
    #     hydro 4 f 17.6
    #  Further basis functions - improvements: -0.08 meV and below
    #     hydro 3 s 2
    #     hydro 3 p 6
    #     hydro 4 d 20
    ################################################################################
    #
    #  FHI-aims code project
    #  VB, Fritz-Haber Institut, 2009
    #
    #  Suggested "light" defaults for N atom (to be pasted into control.in file)
    #  Be sure to double-check any results obtained with these settings for post-processing,
    #  e.g., with the "tight" defaults and larger basis sets.
    #
    ################################################################################
      species        N
    #     global species definitions
        nucleus             7
        mass                14.0067
    #
        l_hartree           4
    #
        cut_pot             3.5  1.5  1.0
        basis_dep_cutoff    1e-4
    #
        radial_base         35 5.0
        radial_multiplier   1
        angular_grids       specified
          division   0.2599   50
          division   0.4601  110
          division   0.5885  194
          division   0.6503  302
    #      division   0.6939  434
    #      division   0.7396  590
    #      division   0.7632  770
    #      division   0.8122  974
    #      division   1.1604 1202
    #      outer_grid  974
          outer_grid  302
    ################################################################################
    #
    #  Definition of "minimal" basis
    #
    ################################################################################
    #     valence basis states
        valence      2  s   2.
        valence      2  p   3.
    #     ion occupancy
        ion_occ      2  s   1.
        ion_occ      2  p   2.
    ################################################################################
    #
    #  Suggested additional basis functions. For production calculations,
    #  uncomment them one after another (the most important basis functions are
    #  listed first).
    #
    #  Constructed for dimers: 1.0 A, 1.1 A, 1.5 A, 2.0 A, 3.0 A
    #
    ################################################################################
    #  "First tier" - improvements: -1193.42 meV to -220.60 meV
         hydro 2 p 1.8
         hydro 3 d 6.8
         hydro 3 s 5.8
    #  "Second tier" - improvements: -80.21 meV to -6.86 meV
    #     hydro 4 f 10.8
    #     hydro 3 p 5.8
    #     hydro 1 s 0.8
    #     hydro 5 g 16
    #     hydro 3 d 4.9
    #  "Third tier" - improvements: -4.29 meV to -0.53 meV
    #     hydro 3 s 16
    #     ionic 2 p auto
    #     hydro 3 d 6.6
    #     hydro 4 f 11.6
    #  "Fourth tier" - improvements: -0.75 meV to -0.25 meV
    #     hydro 2 p 4.5
    #     hydro 2 s 2.4
    #     hydro 5 g 14.4
    #     hydro 4 d 14.4
    #     hydro 4 f 16.8
    # Further basis functions - -0.21 meV and below
    #     hydro 3 p 14.8
    #     hydro 3 s 4.4
    #     hydro 3 d 19.6
    #     hydro 5 g 12.8
    ################################################################################
    #
    #  FHI-aims code project
    #  VB, Fritz-Haber Institut, 2009
    #
    #  Suggested "light" defaults for O atom (to be pasted into control.in file)
    #  Be sure to double-check any results obtained with these settings for post-processing,
    #  e.g., with the "tight" defaults and larger basis sets.
    #
    ################################################################################
      species        O
    #     global species definitions
        nucleus             8
        mass                15.9994
    #
        l_hartree           4
    #
        cut_pot             3.5  1.5  1.0
        basis_dep_cutoff    1e-4
    #
        radial_base         36 5.0
        radial_multiplier   1
         angular_grids specified
          division   0.2659   50
          division   0.4451  110
          division   0.6052  194
          division   0.7543  302
    #      division   0.8014  434
    #      division   0.8507  590
    #      division   0.8762  770
    #      division   0.9023  974
    #      division   1.2339 1202
    #      outer_grid 974
          outer_grid 302
    ################################################################################
    #
    #  Definition of "minimal" basis
    #
    ################################################################################
    #     valence basis states
        valence      2  s   2.
        valence      2  p   4.
    #     ion occupancy
        ion_occ      2  s   1.
        ion_occ      2  p   3.
    ################################################################################
    #
    #  Suggested additional basis functions. For production calculations,
    #  uncomment them one after another (the most important basis functions are
    #  listed first).
    #
    #  Constructed for dimers: 1.0 A, 1.208 A, 1.5 A, 2.0 A, 3.0 A
    #
    ################################################################################
    #  "First tier" - improvements: -699.05 meV to -159.38 meV
         hydro 2 p 1.8
         hydro 3 d 7.6
         hydro 3 s 6.4
    #  "Second tier" - improvements: -49.91 meV to -5.39 meV
    #     hydro 4 f 11.6
    #     hydro 3 p 6.2
    #     hydro 3 d 5.6
    #     hydro 5 g 17.6
    #     hydro 1 s 0.75
    #  "Third tier" - improvements: -2.83 meV to -0.50 meV
    #     ionic 2 p auto
    #     hydro 4 f 10.8
    #     hydro 4 d 4.7
    #     hydro 2 s 6.8
    #  "Fourth tier" - improvements: -0.40 meV to -0.12 meV
    #     hydro 3 p 5
    #     hydro 3 s 3.3
    #     hydro 5 g 15.6
    #     hydro 4 f 17.6
    #     hydro 4 d 14
    # Further basis functions - -0.08 meV and below
    #     hydro 3 s 2.1
    #     hydro 4 d 11.6
    #     hydro 3 p 16
    #     hydro 2 s 17.2
    ################################################################################
    #
    #  FHI-aims code project
    #  VB, Fritz-Haber Institut, 2009
    #
    #  Suggested "light" defaults for S atom (to be pasted into control.in file)
    #  Be sure to double-check any results obtained with these settings for post-processing,
    #  e.g., with the "tight" defaults and larger basis sets.
    #
    ################################################################################
      species        S
    #     global species definitions
        nucleus             16
        mass                32.065
    #
        l_hartree           4
    #
        cut_pot             3.5          1.5  1.0
        basis_dep_cutoff    1e-4
    #
        radial_base         44 5.0
        radial_multiplier   1
        angular_grids       specified
          division   0.4665  110
          division   0.5810  194
          division   0.7139  302
    #      division   0.8274  434
    #      division   0.9105  590
    #      division   1.0975  770
    #      division   1.2028  974
    #      outer_grid  974
          outer_grid  302
    ################################################################################
    #
    #  Definition of "minimal" basis
    #
    ################################################################################
    #     valence basis states
        valence      3  s   2.
        valence      3  p   4.
    #     ion occupancy
        ion_occ      3  s   1.
        ion_occ      3  p   3.
    ################################################################################
    #
    #  Suggested additional basis functions. For production calculations,
    #  uncomment them one after another (the most important basis functions are
    #  listed first).
    #
    #  Constructed for dimers: 1.6 A, 1.9 A, 2.5 A, 3.25 A, 4.0 A
    #
    ################################################################################
    #  "First tier" - improvements: -652.81 meV to -45.53 meV
         ionic 3 d auto
         hydro 2 p 1.8
    #     hydro 4 f 7
         ionic 3 s auto
    #  "Second tier" - improvements: -30.20 meV to -1.74 meV
    #     hydro 4 d 6.2
    #     hydro 5 g 10.8
    #     hydro 4 p 4.9
    #     hydro 5 f 10
    #     hydro 1 s 0.8
    #  "Third tier" - improvements: -1.04 meV to -0.20 meV
    #     hydro 3 d 3.9
    #     hydro 3 d 2.7
    #     hydro 5 g 12
    #     hydro 4 p 10.4
    #     hydro 5 f 12.4
    #     hydro 2 s 1.9
    #  "Fourth tier" - improvements: -0.35 meV to -0.06 meV
    #     hydro 4 d 10.4
    #     hydro 4 p 7.2
    #     hydro 4 d 10
    #     hydro 5 g 19.2
    #     hydro 4 s 12
  
  
  -----------------------------------------------------------------------
  Completed first pass over input file control.in .
  -----------------------------------------------------------------------
  
  
  -----------------------------------------------------------------------
  Parsing geometry.in (first pass over file, find array dimensions only).
  The contents of geometry.in will be repeated verbatim below
  unless switched off by setting 'verbatim_writeout .false.' .
  in the first line of geometry.in .
  -----------------------------------------------------------------------
  
  lattice_vector 6.047404 0.0 0.0
  lattice_vector 4.020245406981548e-16 6.5655589999999995 0.0
  lattice_vector 4.020245621551611e-16 -3.2827800000000003 5.685940999999999
  atom 0.84099 -0.97367 2.78657 C
  atom 0.84099 -1.35637 4.13182 C
  atom 0.84099 -0.38270 5.13588 C
  atom 0.84099 0.97367 4.79468 C
  atom 0.84099 1.35637 3.44943 C
  atom 0.84099 0.38270 2.44538 C
  atom 0.84099 -1.73347 2.00306 H
  atom 0.84099 -2.41481 4.39807 H
  atom 0.84099 -0.68134 6.18564 H
  atom 0.84099 1.73347 5.57819 H
  atom 0.84099 2.41481 3.18319 H
  atom 0.84099 0.68134 1.39562 H
  atom 3.86469 3.66548 0.55006 C
  atom 3.86469 2.30911 0.89126 C
  atom 3.86469 1.92641 2.23651 C
  atom 3.86469 2.90008 3.24057 C
  atom 3.86469 4.25645 2.89937 C
  atom 3.86469 4.63915 1.55412 C
  atom 3.86469 3.96412 -0.49969 H
  atom 3.86469 1.54931 0.10775 H
  atom 3.86469 0.86797 2.50276 H
  atom 3.86469 2.60144 4.29032 H
  atom 3.86469 5.01625 3.68288 H
  atom 3.86469 5.69759 1.28787 H
  
  -----------------------------------------------------------------------
  Completed first pass over input file geometry.in .
  -----------------------------------------------------------------------
  

  Basic array size parameters:
  | Number of species                 :        5
  | Number of atoms                   :       24
  | Number of lattice vectors         :        3
  | Max. basis fn. angular momentum   :        2
  | Max. atomic/ionic basis occupied n:        3
  | Max. number of basis fn. types    :        3
  | Max. radial fns per species/type  :        5
  | Max. logarithmic grid size        :     1357
  | Max. radial integration grid size :       44
  | Max. angular integration grid size:      302
  | Max. angular grid division number :        8
  | Radial grid for Hartree potential :     1357
  | Number of spin channels           :        1

------------------------------------------------------------
          Reading file control.in.
------------------------------------------------------------
  XC: Using PBE gradient-corrected functionals.
  Spin treatment: No spin polarisation.
  Non-relativistic treatment of kinetic energy.
  override_relativity: Explicitly overriding any built-in relativity checks.
  If you use this flag, you should really know what you are doing.
  Charge =   0.000000E+00: Neutral system requested explicitly.
  Occupation type: Gaussian broadening, width =   0.100000E+00 eV.
  Using pulay charge density mixing.
  Pulay mixing - number of memorized iterations:   10
  Charge density mixing - mixing parameter:     0.3000
  Convergence accuracy of self-consistent charge density:  0.1000E-03
  Convergence accuracy of sum of eigenvalues:  0.1000E-01
  Convergence accuracy of total energy:  0.1000E-03
  Convergence accuracy of forces:  0.1000E-01
  Maximum number of s.-c. iterations  :  1000
  Assuming qualitatively harmonic for steps shorter than   0.200000E-01 A.
  Max energy increase before discarding BFGS move:   0.500000E-02 eV
  Postprocessing will be performed even if SCF does not converge.
  Hessian information is explicitly not written to geometry.in.next_step for relaxation restart.
  Found k-point grid:         3         3         3
  Geometry relaxation: Modified BFGS - TRM (trust radius method) for lattice optimization.
  Convergence accuracy for geometry relaxation: Maximum force <   0.100000E-01 eV/A.
 
  Reading configuration options for species H                   .
  | Found nuclear charge :   1.0000
  | Found atomic mass :    1.00794000000000      amu
  | Found l_max for Hartree potential  :   4
  | Found cutoff potl. onset [A], width [A], scale factor :    3.50000    1.50000    1.00000
  | Threshold for basis-dependent cutoff potential is   0.100000E-03
  | Found data for basic radial integration grid :    24 points, outermost radius =    5.000 A
  | Found multiplier for basic radial grid :   1
  | Found angular grid specification: user-specified.
  | Specified grid contains     5 separate shells.
  | Check grid settings after all constraints further below.
  | Found free-atom valence shell :  1 s   1.000
  | Found free-ion valence shell :  1 s   0.500
  | Found hydrogenic basis function :  2 s   2.100
  | Found hydrogenic basis function :  2 p   3.500
  Species H                   : Missing cutoff potential type.
  Defaulting to exp(1/x)/(1-x)^2 type cutoff potential.
  Species H : No 'logarithmic' tag. Using default grid for free atom:
  | Default logarithmic grid data [bohr] : 0.1000E-03 0.1000E+03 0.1012E+01
  Species H : On-site basis accuracy parameter (for Gram-Schmidt orthonormalisation) not specified.
  Using default value basis_acc =  0.1000000E-03.
  Species H                   : Using default innermost maximum threshold i_radial=  2 for radial functions.
  Species H                   : Default cutoff onset for free atom density etc. : 0.35000000E+01 AA.
  Species H                   : Basic radial grid will be enhanced according to radial_multiplier =   1, to contain    24 grid points.
 
  Reading configuration options for species C                   .
  | Found nuclear charge :   6.0000
  | Found atomic mass :    12.0107000000000      amu
  | Found l_max for Hartree potential  :   4
  | Found cutoff potl. onset [A], width [A], scale factor :    3.50000    1.50000    1.00000
  | Threshold for basis-dependent cutoff potential is   0.100000E-03
  | Found data for basic radial integration grid :    34 points, outermost radius =    5.000 A
  | Found multiplier for basic radial grid :   1
  | Found angular grid specification: user-specified.
  | Specified grid contains     5 separate shells.
  | Check grid settings after all constraints further below.
  | Found free-atom valence shell :  2 s   2.000
  | Found free-atom valence shell :  2 p   2.000
  | Found free-ion valence shell :  2 s   1.000
  | Found free-ion valence shell :  2 p   1.000
  | Found hydrogenic basis function :  2 p   1.700
  | Found hydrogenic basis function :  3 d   6.000
  | Found hydrogenic basis function :  2 s   4.900
  Species C                   : Missing cutoff potential type.
  Defaulting to exp(1/x)/(1-x)^2 type cutoff potential.
  Species C : No 'logarithmic' tag. Using default grid for free atom:
  | Default logarithmic grid data [bohr] : 0.1000E-03 0.1000E+03 0.1012E+01
  Species C : On-site basis accuracy parameter (for Gram-Schmidt orthonormalisation) not specified.
  Using default value basis_acc =  0.1000000E-03.
  Species C                   : Using default innermost maximum threshold i_radial=  2 for radial functions.
  Species C                   : Default cutoff onset for free atom density etc. : 0.35000000E+01 AA.
  Species C                   : Basic radial grid will be enhanced according to radial_multiplier =   1, to contain    34 grid points.
 
  Reading configuration options for species N                   .
  | Found nuclear charge :   7.0000
  | Found atomic mass :    14.0067000000000      amu
  | Found l_max for Hartree potential  :   4
  | Found cutoff potl. onset [A], width [A], scale factor :    3.50000    1.50000    1.00000
  | Threshold for basis-dependent cutoff potential is   0.100000E-03
  | Found data for basic radial integration grid :    35 points, outermost radius =    5.000 A
  | Found multiplier for basic radial grid :   1
  | Found angular grid specification: user-specified.
  | Specified grid contains     5 separate shells.
  | Check grid settings after all constraints further below.
  | Found free-atom valence shell :  2 s   2.000
  | Found free-atom valence shell :  2 p   3.000
  | Found free-ion valence shell :  2 s   1.000
  | Found free-ion valence shell :  2 p   2.000
  | Found hydrogenic basis function :  2 p   1.800
  | Found hydrogenic basis function :  3 d   6.800
  | Found hydrogenic basis function :  3 s   5.800
  Species N                   : Missing cutoff potential type.
  Defaulting to exp(1/x)/(1-x)^2 type cutoff potential.
  Species N : No 'logarithmic' tag. Using default grid for free atom:
  | Default logarithmic grid data [bohr] : 0.1000E-03 0.1000E+03 0.1012E+01
  Species N : On-site basis accuracy parameter (for Gram-Schmidt orthonormalisation) not specified.
  Using default value basis_acc =  0.1000000E-03.
  Species N                   : Using default innermost maximum threshold i_radial=  2 for radial functions.
  Species N                   : Default cutoff onset for free atom density etc. : 0.35000000E+01 AA.
  Species N                   : Basic radial grid will be enhanced according to radial_multiplier =   1, to contain    35 grid points.
 
  Reading configuration options for species O                   .
  | Found nuclear charge :   8.0000
  | Found atomic mass :    15.9994000000000      amu
  | Found l_max for Hartree potential  :   4
  | Found cutoff potl. onset [A], width [A], scale factor :    3.50000    1.50000    1.00000
  | Threshold for basis-dependent cutoff potential is   0.100000E-03
  | Found data for basic radial integration grid :    36 points, outermost radius =    5.000 A
  | Found multiplier for basic radial grid :   1
  | Found angular grid specification: user-specified.
  | Specified grid contains     5 separate shells.
  | Check grid settings after all constraints further below.
  | Found free-atom valence shell :  2 s   2.000
  | Found free-atom valence shell :  2 p   4.000
  | Found free-ion valence shell :  2 s   1.000
  | Found free-ion valence shell :  2 p   3.000
  | Found hydrogenic basis function :  2 p   1.800
  | Found hydrogenic basis function :  3 d   7.600
  | Found hydrogenic basis function :  3 s   6.400
  Species O                   : Missing cutoff potential type.
  Defaulting to exp(1/x)/(1-x)^2 type cutoff potential.
  Species O : No 'logarithmic' tag. Using default grid for free atom:
  | Default logarithmic grid data [bohr] : 0.1000E-03 0.1000E+03 0.1012E+01
  Species O : On-site basis accuracy parameter (for Gram-Schmidt orthonormalisation) not specified.
  Using default value basis_acc =  0.1000000E-03.
  Species O                   : Using default innermost maximum threshold i_radial=  2 for radial functions.
  Species O                   : Default cutoff onset for free atom density etc. : 0.35000000E+01 AA.
  Species O                   : Basic radial grid will be enhanced according to radial_multiplier =   1, to contain    36 grid points.
 
  Reading configuration options for species S                   .
  | Found nuclear charge :  16.0000
  | Found atomic mass :    32.0650000000000      amu
  | Found l_max for Hartree potential  :   4
  | Found cutoff potl. onset [A], width [A], scale factor :    3.50000    1.50000    1.00000
  | Threshold for basis-dependent cutoff potential is   0.100000E-03
  | Found data for basic radial integration grid :    44 points, outermost radius =    5.000 A
  | Found multiplier for basic radial grid :   1
  | Found angular grid specification: user-specified.
  | Specified grid contains     4 separate shells.
  | Check grid settings after all constraints further below.
  | Found free-atom valence shell :  3 s   2.000
  | Found free-atom valence shell :  3 p   4.000
  | Found free-ion valence shell :  3 s   1.000
  | Found free-ion valence shell :  3 p   3.000
  | Found ionic basis function :  3 d , default cutoff radius.
  | Found hydrogenic basis function :  2 p   1.800
  | Found ionic basis function :  3 s , default cutoff radius.
  Species S                   : Missing cutoff potential type.
  Defaulting to exp(1/x)/(1-x)^2 type cutoff potential.
  Species S : No 'logarithmic' tag. Using default grid for free atom:
  | Default logarithmic grid data [bohr] : 0.1000E-03 0.1000E+03 0.1012E+01
  | Will include ionic basis functions of  2.0-fold positive S                    ion.
  Species S : On-site basis accuracy parameter (for Gram-Schmidt orthonormalisation) not specified.
  Using default value basis_acc =  0.1000000E-03.
  Species S                   : Using default innermost maximum threshold i_radial=  2 for radial functions.
  Species S                   : Default cutoff onset for free atom density etc. : 0.35000000E+01 AA.
  Species S                   : Basic radial grid will be enhanced according to radial_multiplier =   1, to contain    44 grid points.
 
  Finished reading input file 'control.in'. Consistency checks are next.
 
  MPI_IN_PLACE appears to work with this MPI implementation.
  | Keeping use_mpi_in_place .true. (see manual).
  Target number of points in a grid batch is not set. Defaulting to  100
  Method for grid partitioning is not set. Defaulting to parallel hash+maxmin partitioning.
  Batch size limit is not set. Defaulting to    200
  By default, will store active basis functions for each batch.
  If in need of memory, prune_basis_once .false. can be used to disable this option.
  communication_type for Hartree potential was not specified.
  Defaulting to calc_hartree .
  Pulay mixer: Number of initial linear mixing iterations not set.
  Defaulting to    0 iterations.
  Work space size for distributed Hartree potential not set.
  Defaulting to   0.200000E+03 MB.
  Algorithm-dependent basis array size parameters:
  | n_max_pulay                         :       10
  Presetting      1001 iterations before the initial mixing cycle
  is restarted anyway using the sc_init_iter criterion / keyword.
  Presetting a factor      1.000 between actual scf density residual
  and density convergence criterion sc_accuracy_rho below which sc_init_iter
  takes no effect.
  No maximum number of relaxation steps, defaulting to     1000
  Default initial Hessian is Lindh matrix (thres = 15.00) plus  0.200000E+01 eV/A^2 times unity.
  Maximum energy tolerance by which TRM/BFGS trajectory may increase over multiple steps:   0.300000E-02
  No trust radius initializer. Defaulting to   0.200000E+00 A.
  Unit cell relaxation: Unit cell will be relaxed fully.
  Unit cell relaxation: Analytical stress will be used.
  Analytical stress will be computed.
  Analytical stress calculation: Only the upper triangle is calculated.
                                 Final output is symmetrized.
  Analytical stress calculation: scf convergence accuracy of stress not set.
                                 Analytical stress self-consistency will not be checked explicitly.
                                 Be sure to set other criteria like sc_accuracy_rho tight enough.
  Handling of forces: Unphysical translation and rotation will be removed from forces.
  No accuracy limit for integral partition fn. given. Defaulting to  0.1000E-14.
  No threshold value for u(r) in integrations given. Defaulting to  0.1000E-05.
  No accuracy for occupation numbers given. Defaulting to  0.1000E-12.
  No threshold value for occupation numbers given. Defaulting to  0.0000E+00.
  No accuracy for fermi level given. Defaulting to  0.1000E-19.
  Maximum # of iterations to find E_F not set. Defaulting to  200.
  Preferred method for the eigenvalue solver ('KS_method') not specified in 'control.in'.
  Calling BLACS routine to test compilation state
  Since ScaLAPACK support is enabled, defaulting to ELPA (via ELSI).
  Will not use alltoall communication since running on < 1024 CPUs.
  Threshold for basis singularities not set.
  Default threshold for basis singularities:  0.1000E-04
  partition_type (choice of integration weights) for integrals was not specified.
  | Using a version of the partition function of Stratmann and coworkers ('stratmann_sparse').
  | At each grid point, the set of atoms used to build the partition table is smoothly restricted to
  | only those atoms whose free-atom density would be non-zero at that grid point.
  Partitioning for Hartree potential was not defined. Using partition_type for integrals.
  | Adjusted default value of keyword multip_moments_threshold to:       0.10000000E-11
  | This value may affect high angular momentum components of the Hartree potential in periodic systems.
  Angular momentum expansion for Kerker preconditioner not set explicitly.
  | Using default value of   0
  No explicit requirement for turning off preconditioner.
  | By default, it will be turned off when the charge convergence reaches
  | sc_accuracy_rho  =   0.100000E-03
  | sc_accuracy_eev  =   0.100000E-01
  | sc_accuracy_etot =   0.100000E-03
  No special mixing parameter while Kerker preconditioner is on.
  Using default: charge_mix_param =     0.3000.
  No q(lm)/r^(l+1) cutoff set for long-range Hartree potential.
  | Using default value of  0.100000E-09 .
  | Verify using the multipole_threshold keyword.
  Defaulting to new monopole extrapolation.
  Density update method: automatic selection selected.
  Using density matrix based charge density update.
  Using density matrix based charge density update.
  Using packed matrix style: index .
  Geometry relaxation: A file "geometry.in.next_step" is written out by default after each step.
  | This file contains the geometry of the current relaxation step as well as
  | the current Hessian matrix needed to restart the relaxation algorithm.
  | If you do not want part or all of this information, use the keywords
  | "write_restart_geometry" or "hessian_to_restart_geometry" to switch the output off.
  Defaulting to use time-reversal symmetry for k-point grid.
  Using the following vdw_convergence_threshold for supercell sums
  over the Tkatchenko-Scheffler correction:  0.100000E-05 eV.
------------------------------------------------------------


------------------------------------------------------------
          Reading geometry description geometry.in.
------------------------------------------------------------
  Input structure read successfully.
  The structure contains       24 atoms,  and a total of         84.000 electrons.

  Input geometry:
  | Unit cell:
  |        6.04740400        0.00000000        0.00000000
  |        0.00000000        6.56555900        0.00000000
  |        0.00000000       -3.28278000        5.68594100
  | Atomic structure:
  |       Atom                x [A]            y [A]            z [A]
  |    1: Species C             0.84099000       -0.97367000        2.78657000
  |    2: Species C             0.84099000       -1.35637000        4.13182000
  |    3: Species C             0.84099000       -0.38270000        5.13588000
  |    4: Species C             0.84099000        0.97367000        4.79468000
  |    5: Species C             0.84099000        1.35637000        3.44943000
  |    6: Species C             0.84099000        0.38270000        2.44538000
  |    7: Species H             0.84099000       -1.73347000        2.00306000
  |    8: Species H             0.84099000       -2.41481000        4.39807000
  |    9: Species H             0.84099000       -0.68134000        6.18564000
  |   10: Species H             0.84099000        1.73347000        5.57819000
  |   11: Species H             0.84099000        2.41481000        3.18319000
  |   12: Species H             0.84099000        0.68134000        1.39562000
  |   13: Species C             3.86469000        3.66548000        0.55006000
  |   14: Species C             3.86469000        2.30911000        0.89126000
  |   15: Species C             3.86469000        1.92641000        2.23651000
  |   16: Species C             3.86469000        2.90008000        3.24057000
  |   17: Species C             3.86469000        4.25645000        2.89937000
  |   18: Species C             3.86469000        4.63915000        1.55412000
  |   19: Species H             3.86469000        3.96412000       -0.49969000
  |   20: Species H             3.86469000        1.54931000        0.10775000
  |   21: Species H             3.86469000        0.86797000        2.50276000
  |   22: Species H             3.86469000        2.60144000        4.29032000
  |   23: Species H             3.86469000        5.01625000        3.68288000
  |   24: Species H             3.86469000        5.69759000        1.28787000

  Lattice parameters for 3D lattice (in Angstroms) :     6.047404    6.565559    6.565559
  Angle(s) between unit vectors (in degrees)       :   120.000003   90.000000   90.000000

  |

  | The smallest distance between any two atoms is         1.09140318 AA.
  |
  | The first atom of this pair is atom number                     13 .
  | The second atom of this pair is atom number                    19 .
  | Wigner-Seitz cell of the first atom image           0     0     0 .
  | (The Wigner-Seitz cell of the second atom is 0 0 0  by definition.)

  Symmetry information by spglib:
  | Precision set to  0.1E-04
  | Number of Operations  : 2
  | Space group           : 6
  | International         : Pm
  | Schoenflies           : Cs^1

  Quantities derived from the lattice vectors:
  | Reciprocal lattice vector 1:  1.038989 -0.000000 -0.000000
  | Reciprocal lattice vector 2:  0.000000  0.956992  0.552519
  | Reciprocal lattice vector 3:  0.000000  0.000000  1.105039
  | Unit cell volume                               :   0.225758E+03  A^3

  Range separation radius for Ewald summation (hartree_convergence_parameter):      2.90199285 bohr.

  Fractional coordinates:
                         L1                L2                L3
       atom_frac         0.13906628        0.09674076        0.49008071  C
       atom_frac         0.13906628        0.15674792        0.72667303  C
       atom_frac         0.13906628        0.39334078        0.90325946  C
       atom_frac         0.13906628        0.56992560        0.84325180  C
       atom_frac         0.13906628        0.50991844        0.60665948  C
       atom_frac         0.13906628        0.27332646        0.43007481  C
       atom_frac         0.13906628       -0.08788324        0.35228294  H
       atom_frac         0.13906628        0.01894998        0.77349906  H
       atom_frac         0.13906628        0.44016684        1.08788325  H
       atom_frac         0.13906628        0.75454960        0.98104957  H
       atom_frac         0.13906628        0.64771725        0.55983521  H
       atom_frac         0.13906628        0.22650039        0.24545102  H
       atom_frac         0.63906595        0.60665929        0.09674036  C
       atom_frac         0.63906595        0.43007446        0.15674802  C
       atom_frac         0.63906595        0.49008162        0.39334035  C
       atom_frac         0.63906595        0.72667449        0.56992677  C
       atom_frac         0.63906595        0.90325931        0.50991911  C
       atom_frac         0.63906595        0.84325215        0.27332679  C
       atom_frac         0.63906595        0.55983410       -0.08788167  H
       atom_frac         0.63906595        0.24545046        0.01895025  H
       atom_frac         0.63906595        0.35228369        0.44016637  H
       atom_frac         0.63906595        0.77349967        0.75454881  H
       atom_frac         0.63906595        1.08788331        0.64771689  H
       atom_frac         0.63906595        0.98105008        0.22650077  H

  Number of empty states per atom not set in control.in - providing a guess from actual geometry.
  | Total number of empty states used during s.c.f. cycle:       54
  If you use a very high smearing, use empty_states (per atom!) in control.in to increase this value.

  Structure-dependent array size parameters: 
  | Maximum number of distinct radial functions  :       29
  | Maximum number of basis functions            :      228
  | Number of Kohn-Sham states (occupied + empty):       96
------------------------------------------------------------

------------------------------------------------------------
          Preparing all fixed parts of the calculation.
------------------------------------------------------------
  Determining machine precision:
    2.225073858507201E-308
  Setting up grids for atomic and cluster calculations.

  Creating wave function, potential, and density for free atoms.

  Species: H

  List of occupied orbitals and eigenvalues:
    n    l              occ      energy [Ha]    energy [eV]
    1    0           1.0000        -0.237589        -6.4651


  Species: C

  List of occupied orbitals and eigenvalues:
    n    l              occ      energy [Ha]    energy [eV]
    1    0           2.0000       -10.038835      -273.1706
    2    0           2.0000        -0.502696       -13.6791
    2    1           2.0000        -0.191971        -5.2238


  Species: N

  List of occupied orbitals and eigenvalues:
    n    l              occ      energy [Ha]    energy [eV]
    1    0           2.0000       -14.128000      -384.4424
    2    0           2.0000        -0.681077       -18.5330
    2    1           3.0000        -0.259788        -7.0692


  Species: O

  List of occupied orbitals and eigenvalues:
    n    l              occ      energy [Ha]    energy [eV]
    1    0           2.0000       -18.898188      -514.2459
    2    0           2.0000        -0.878505       -23.9053
    2    1           4.0000        -0.331779        -9.0282


  Species: S

  List of occupied orbitals and eigenvalues:
    n    l              occ      energy [Ha]    energy [eV]
    1    0           2.0000       -88.105825     -2397.4815
    2    0           2.0000        -7.730144      -210.3479
    3    0           2.0000        -0.627748       -17.0819
    2    1           6.0000        -5.747971      -156.4103
    3    1           4.0000        -0.255786        -6.9603

  Creating fixed part of basis set: Ionic, confined, hydrogenic.
 
  H                    hydrogenic:
 
  List of hydrogenic basis orbitals: 
    n    l      effective z      eigenvalue [eV]  inner max. [A]     outer max. [A]     outer radius [A]   
    2    0         2.100000       -14.9728           0.193243           1.317208           4.583499
    2    1         3.500000       -41.6669           0.602369           0.602369           3.723403
 
 
  C                    hydrogenic:
 
  List of hydrogenic basis orbitals: 
    n    l      effective z      eigenvalue [eV]  inner max. [A]     outer max. [A]     outer radius [A]   
    2    1         1.700000        -9.7616           1.230570           1.230570           4.607917
    3    2         6.000000       -54.4224           0.792453           0.792453           3.883070
    2    0         4.900000       -81.6679           0.082559           0.562749           3.078220
 
 
  N                    hydrogenic:
 
  List of hydrogenic basis orbitals: 
    n    l      effective z      eigenvalue [eV]  inner max. [A]     outer max. [A]     outer radius [A]   
    2    1         1.800000       -10.9749           1.177451           1.177451           4.573712
    3    2         6.800000       -69.9026           0.704619           0.704619           3.538137
    3    0         5.800000       -50.8545           0.067388           1.191934           4.250239
 
 
  O                    hydrogenic:
 
  List of hydrogenic basis orbitals: 
    n    l      effective z      eigenvalue [eV]  inner max. [A]     outer max. [A]     outer radius [A]   
    2    1         1.800000       -10.9749           1.164242           1.164242           4.578029
    3    2         7.600000       -87.3180           0.624125           0.624125           3.251020
    3    0         6.400000       -61.9207           0.061167           1.081902           4.001998
 
 
  S                    ion:

  List of free ionic orbitals and eigenvalues:
    n    l      energy [Ha]    energy [eV]
    1    0       -89.127201     -2425.2745
    2    0        -8.724378      -237.4024
    3    0        -1.464668       -39.8556
    2    1        -6.744348      -183.5230
    3    1        -1.048520       -28.5317


  List of ionic basis orbitals and eigenvalues:
    n    l      energy [Ha]    energy [eV]    outer radius [A]
    3    2        -0.496135       -13.5005       4.539062
    3    0        -1.464653       -39.8552       3.642502

 
  S                    hydrogenic:
 
  List of hydrogenic basis orbitals: 
    n    l      effective z      eigenvalue [eV]  inner max. [A]     outer max. [A]     outer radius [A]   
    2    1         1.800000       -10.9749           1.168531           1.168531           4.594893
 

  Adding cutoff potential to free-atom effective potential.
  Creating atomic-like basis functions for current effective potential.

  Species H                   :

  List of atomic basis orbitals and eigenvalues:
    n    l      energy [Ha]    energy [eV]    outer radius [A]
    1    0        -0.237589        -6.4651       4.527807


  Species C                   :

  List of atomic basis orbitals and eigenvalues:
    n    l      energy [Ha]    energy [eV]    outer radius [A]
    1    0       -10.038835      -273.1706       1.934409
    2    0        -0.502696       -13.6791       4.496620
    2    1        -0.191971        -5.2238       4.551928


  Species N                   :

  List of atomic basis orbitals and eigenvalues:
    n    l      energy [Ha]    energy [eV]    outer radius [A]
    1    0       -14.128000      -384.4424       1.637919
    2    0        -0.681077       -18.5330       4.463241
    2    1        -0.259788        -7.0692       4.518138


  Species O                   :

  List of atomic basis orbitals and eigenvalues:
    n    l      energy [Ha]    energy [eV]    outer radius [A]
    1    0       -18.898188      -514.2459       1.415765
    2    0        -0.878505       -23.9053       4.413171
    2    1        -0.331779        -9.0282       4.522403


  Species S                   :

  List of atomic basis orbitals and eigenvalues:
    n    l      energy [Ha]    energy [eV]    outer radius [A]
    1    0       -88.105825     -2397.4815       0.682391
    2    0        -7.730144      -210.3479       2.317169
    3    0        -0.627748       -17.0819       4.483910
    2    1        -5.747971      -156.4103       2.555240
    3    1        -0.255786        -6.9603       4.539062

  Assembling full basis from fixed parts.
  | Species H :   atomic orbital   1 s accepted.
  | Species H :    hydro orbital   2 s accepted.
  | Species H :    hydro orbital   2 p accepted.
  | Species C :   atomic orbital   1 s accepted.
  | Species C :    hydro orbital   2 s accepted.
  | Species C :   atomic orbital   2 s accepted.
  | Species C :   atomic orbital   2 p accepted.
  | Species C :    hydro orbital   2 p accepted.
  | Species C :    hydro orbital   3 d accepted.
  | Species N :   atomic orbital   1 s accepted.
  | Species N :    hydro orbital   3 s accepted.
  | Species N :   atomic orbital   2 s accepted.
  | Species N :   atomic orbital   2 p accepted.
  | Species N :    hydro orbital   2 p accepted.
  | Species N :    hydro orbital   3 d accepted.
  | Species O :   atomic orbital   1 s accepted.
  | Species O :    hydro orbital   3 s accepted.
  | Species O :   atomic orbital   2 s accepted.
  | Species O :   atomic orbital   2 p accepted.
  | Species O :    hydro orbital   2 p accepted.
  | Species O :    hydro orbital   3 d accepted.
  | Species S :   atomic orbital   1 s accepted.
  | Species S :   atomic orbital   2 s accepted.
  | Species S :    ionic orbital   3 s accepted.
  | Species S :   atomic orbital   3 s accepted.
  | Species S :   atomic orbital   2 p accepted.
  | Species S :   atomic orbital   3 p accepted.
  | Species S :    hydro orbital   2 p accepted.
  | Species S :    ionic orbital   3 d accepted.
 
  Basis size parameters after reduction:
  | Total number of radial functions:       29
  | Total number of basis functions :      228
 
  Per-task memory consumption for arrays in subroutine allocate_ext:
  |           7.565172MB.
  Testing on-site integration grid accuracy.
  |  Species  Function  <phi|h_atom|phi> (log., in eV)  <phi|h_atom|phi> (rad., in eV)
           1        1                 -6.4663192853                 -6.4651273558
           1        2                 13.7111246313                 13.7170609718
           1        3                 25.2673269279                 25.2674696378
           2        4               -273.1705927641               -273.1705631568
           2        5                -10.7109323383                -10.7107120029
           2        6                 17.4381822266                 17.4352413244
           2        7                 -5.2255326521                 -5.2270484734
           2        8                  8.6835629259                  8.6603288385
           2        9                 27.4952418996                 27.4953360207
           3       10               -384.4424306495               -384.4423701208
           3       11                 12.5842251816                 12.5842222903
           3       12                -15.7264628251                -15.7264433455
           3       13                 -7.0696854293                 -7.0701769954
           3       14                  8.8090390882                  8.7901077751
           3       15                 35.9586762123                 35.9588528632
           4       16               -514.2458688638               -514.2457643834
           4       17                 15.1795651126                 15.1795290741
           4       18                -21.5359799773                -21.5360846186
           4       19                 -9.0283069236                 -9.0284644067
           4       20                  8.3027758564                  8.2834874195
           4       21                 45.8339351984                 45.8338762259
           5       22              -2397.4814915323              -2397.4804563634
           5       23               -210.3479335736               -210.3479265952
           5       24                -16.8079362322                -16.8079092816
           5       25                  7.5772439785                  7.5675998324
           5       26               -156.4102581151               -156.4102580951
           5       27                 -6.9617737483                 -6.9640288036
           5       28                  7.5696988470                  7.5151244831 ***
           5       29                  6.0973034823                  6.0928113248
 * Note: Onsite integrals marked "***" above are less accurate than
 * onsite_accuracy_threshold =    0.03000 eV. Usually, this is harmless.
 * When in doubt, tighten the "radial" and/or "radial_multiplier" flags to check.

  Preparing densities etc. for the partition functions (integrals / Hartree potential).

  Preparations completed.
  max(cpu_time)          :      0.449 s.
  Wall clock time (cpu1) :      0.448 s.
------------------------------------------------------------

------------------------------------------------------------
          Begin self-consistency loop: Initialization.

          Date     :  20191215, Time     :  143247.556
------------------------------------------------------------

  Initializing index lists of integration centers etc. from given atomic structure:
  Mapping all atomic coordinates to central unit cell.

  Initializing the k-points
          Using symmetry for reducing the k-points
  | k-points reduced from:       27 to       14
  | Number of k-points                             :        14
  The eigenvectors in the calculations are COMPLEX.
  | Number of basis functions in the Hamiltonian integrals :      2674
  | Number of basis functions in a single unit cell        :       228
  | Number of centers in hartree potential         :      1554
  | Number of centers in hartree multipole         :      1128
  | Number of centers in electron density summation:       798
  | Number of centers in basis integrals           :       876
  | Number of centers in integrals                 :       363
  | Number of centers in hamiltonian               :       810
  | Consuming         15 KiB for k_phase.
  | Number of super-cells (origin) [n_cells]                     :         343
  | Number of super-cells (after PM_index) [n_cells]             :          72
  | Number of super-cells in hamiltonian [n_cells_in_hamiltonian]:          72
  | Size of matrix packed + index [n_hamiltonian_matrix_size] :      294445

  Initializing relaxation algorithms.
  Finished initialization of distributed Hessian storage.
  | Global dimension:        81
  | BLACS block size:         2
  | Number of workers:       41

  | Estimated reciprocal-space cutoff momentum G_max:         3.26180057 bohr^-1 .
  | Reciprocal lattice points for long-range Hartree potential:     898
  Checking for possible mapping of k-points to SMP-nodes
  Running on 1 SMP-nodes
  Mapping of k-points to SMP-nodes is *NOT* possible:
  | 14 k-points  : 1 SMP-nodes
 * The calculation will run, but some performance degradation might result.
 * Check the number of actual k-points above, and consider using a number
 * compute nodes that can be divided cleanly by the number of k points
 * (e.g., two k-points per node, two nodes per k-point, etc.).
  Using simple linear distribution as default method for k-point parallelism.
  * Using 55 tasks for Scalapack Eigenvalue solver.
  Detailed listing of tasks and assigned k-points:
   Task     0 k-point     1 on e001
   Task     1 k-point     1 on e001
   Task     2 k-point     1 on e001
   Task     3 k-point     1 on e001
   Task     4 k-point     2 on e001
   Task     5 k-point     2 on e001
   Task     6 k-point     2 on e001
   Task     7 k-point     2 on e001
   Task     8 k-point     3 on e001
   Task     9 k-point     3 on e001
   Task    10 k-point     3 on e001
   Task    11 k-point     3 on e001
   Task    12 k-point     4 on e001
   Task    13 k-point     4 on e001
   Task    14 k-point     4 on e001
   Task    15 k-point     4 on e001
   Task    16 k-point     5 on e001
   Task    17 k-point     5 on e001
   Task    18 k-point     5 on e001
   Task    19 k-point     5 on e001
   Task    20 k-point     6 on e001
   Task    21 k-point     6 on e001
   Task    22 k-point     6 on e001
   Task    23 k-point     6 on e001
   Task    24 k-point     7 on e001
   Task    25 k-point     7 on e001
   Task    26 k-point     7 on e001
   Task    27 k-point     7 on e001
   Task    28 k-point     8 on e001
   Task    29 k-point     8 on e001
   Task    30 k-point     8 on e001
   Task    31 k-point     8 on e001
   Task    32 k-point     9 on e001
   Task    33 k-point     9 on e001
   Task    34 k-point     9 on e001
   Task    35 k-point     9 on e001
   Task    36 k-point    10 on e001
   Task    37 k-point    10 on e001
   Task    38 k-point    10 on e001
   Task    39 k-point    10 on e001
   Task    40 k-point    11 on e001
   Task    41 k-point    11 on e001
   Task    42 k-point    11 on e001
   Task    43 k-point    11 on e001
   Task    44 k-point    12 on e001
   Task    45 k-point    12 on e001
   Task    46 k-point    12 on e001
   Task    47 k-point    12 on e001
   Task    48 k-point    13 on e001
   Task    49 k-point    13 on e001
   Task    50 k-point    13 on e001
   Task    51 k-point    13 on e001
   Task    52 k-point    14 on e001
   Task    53 k-point    14 on e001
   Task    54 k-point    14 on e001
  K-point:     1 Tasks:     4 split into      2 X      2 BLACS grid
  Calculating block size based on n_basis =          228  max_nprow =            3  max_npcol =            2
  ScaLAPACK block size set to:           16
  Allocating        0.205 MB for ovlp_complex
  Allocating        0.205 MB for ham_complex
  Allocating        0.205 MB for eigenvec_complex
  Required Scalapack workspace - INTEGER:            1  REAL:             1  COMPLEX:            1
  Partitioning the integration grid into batches with parallel hashing+maxmin method.
  | Number of batches:     1618
  | Maximal batch size:     123
  | Minimal batch size:      50
  | Average batch size:      77.844
  | Standard deviation of batch sizes:      14.424

  Integration load balanced across    55 MPI tasks.
  Work distribution over tasks is as follows:
  Task     0 has       2286 integration points.
  Task     1 has       2275 integration points.
  Task     2 has       2284 integration points.
  Task     3 has       2297 integration points.
  Task     4 has       2287 integration points.
  Task     5 has       2303 integration points.
  Task     6 has       2264 integration points.
  Task     7 has       2272 integration points.
  Task     8 has       2291 integration points.
  Task     9 has       2279 integration points.
  Task    10 has       2292 integration points.
  Task    11 has       2297 integration points.
  Task    12 has       2304 integration points.
  Task    13 has       2286 integration points.
  Task    14 has       2332 integration points.
  Task    15 has       2254 integration points.
  Task    16 has       2272 integration points.
  Task    17 has       2289 integration points.
  Task    18 has       2288 integration points.
  Task    19 has       2292 integration points.
  Task    20 has       2242 integration points.
  Task    21 has       2290 integration points.
  Task    22 has       2335 integration points.
  Task    23 has       2289 integration points.
  Task    24 has       2286 integration points.
  Task    25 has       2338 integration points.
  Task    26 has       2335 integration points.
  Task    27 has       2337 integration points.
  Task    28 has       2288 integration points.
  Task    29 has       2275 integration points.
  Task    30 has       2339 integration points.
  Task    31 has       2283 integration points.
  Task    32 has       2289 integration points.
  Task    33 has       2271 integration points.
  Task    34 has       2294 integration points.
  Task    35 has       2279 integration points.
  Task    36 has       2240 integration points.
  Task    37 has       2293 integration points.
  Task    38 has       2288 integration points.
  Task    39 has       2285 integration points.
  Task    40 has       2288 integration points.
  Task    41 has       2266 integration points.
  Task    42 has       2269 integration points.
  Task    43 has       2341 integration points.
  Task    44 has       2290 integration points.
  Task    45 has       2280 integration points.
  Task    46 has       2284 integration points.
  Task    47 has       2333 integration points.
  Task    48 has       2259 integration points.
  Task    49 has       2292 integration points.
  Task    50 has       2299 integration points.
  Task    51 has       2307 integration points.
  Task    52 has       2286 integration points.
  Task    53 has       2292 integration points.
  Task    54 has       2246 integration points.
  Initializing partition tables, free-atom densities, potentials, etc. across the integration grid (initialize_grid_storage).
  | initialize_grid_storage: Actual outermost partition radius vs. multipole_radius_free
  | (-- VB: in principle, multipole_radius_free should be larger, hence this output)
  | Species        1: Confinement radius =              4.999999999999999 AA, multipole_radius_free =              5.054417573612229 AA.
  | Species        1: outer_partition_radius set to              5.054417573612229 AA .
  | Species        2: Confinement radius =              4.999999999999999 AA, multipole_radius_free =              5.019602836301480 AA.
  | Species        2: outer_partition_radius set to              5.019602836301480 AA .
  | Species        3: Confinement radius =              4.999999999999999 AA, multipole_radius_free =              5.043624274424571 AA.
  | Species        3: outer_partition_radius set to              5.043624274424571 AA .
  | Species        4: Confinement radius =              4.999999999999999 AA, multipole_radius_free =              5.048384829883283 AA.
  | Species        4: outer_partition_radius set to              5.048384829883283 AA .
  | Species        5: Confinement radius =              4.999999999999999 AA, multipole_radius_free =              5.005414751018925 AA.
  | Species        5: outer_partition_radius set to              5.005414751018925 AA .
  | The sparse table of interatomic distances needs       2707.54 kbyte instead of      6139.01 kbyte of memory.
  | Net number of integration points:   125952
  | of which are non-zero points    :    99184
  | Numerical average free-atom electrostatic potential    :     -8.09940747 eV
  Renormalizing the initial density to the exact electron count on the 3D integration grid.
  | Initial density: Formal number of electrons (from input files) :      84.0000000000
  | Integrated number of electrons on 3D grid     :      84.0106423440
  | Charge integration error                      :       0.0106423440
  | Normalization factor for density and gradient :       0.9998733215
  Obtaining max. number of non-zero basis functions in each batch (get_n_compute_maxes).
  | Maximal number of non-zero basis functions:      462 in task     0
  | Maximal number of non-zero basis functions:      454 in task     1
  | Maximal number of non-zero basis functions:      462 in task     2
  | Maximal number of non-zero basis functions:      454 in task     3
  | Maximal number of non-zero basis functions:      456 in task     4
  | Maximal number of non-zero basis functions:      458 in task     5
  | Maximal number of non-zero basis functions:      456 in task     6
  | Maximal number of non-zero basis functions:      481 in task     7
  | Maximal number of non-zero basis functions:      453 in task     8
  | Maximal number of non-zero basis functions:      451 in task     9
  | Maximal number of non-zero basis functions:      452 in task    10
  | Maximal number of non-zero basis functions:      450 in task    11
  | Maximal number of non-zero basis functions:      459 in task    12
  | Maximal number of non-zero basis functions:      470 in task    13
  | Maximal number of non-zero basis functions:      468 in task    14
  | Maximal number of non-zero basis functions:      457 in task    15
  | Maximal number of non-zero basis functions:      474 in task    16
  | Maximal number of non-zero basis functions:      453 in task    17
  | Maximal number of non-zero basis functions:      473 in task    18
  | Maximal number of non-zero basis functions:      451 in task    19
  | Maximal number of non-zero basis functions:      463 in task    20
  | Maximal number of non-zero basis functions:      467 in task    21
  | Maximal number of non-zero basis functions:      452 in task    22
  | Maximal number of non-zero basis functions:      463 in task    23
  | Maximal number of non-zero basis functions:      455 in task    24
  | Maximal number of non-zero basis functions:      479 in task    25
  | Maximal number of non-zero basis functions:      458 in task    26
  | Maximal number of non-zero basis functions:      467 in task    27
  | Maximal number of non-zero basis functions:      466 in task    28
  | Maximal number of non-zero basis functions:      483 in task    29
  | Maximal number of non-zero basis functions:      455 in task    30
  | Maximal number of non-zero basis functions:      470 in task    31
  | Maximal number of non-zero basis functions:      471 in task    32
  | Maximal number of non-zero basis functions:      455 in task    33
  | Maximal number of non-zero basis functions:      473 in task    34
  | Maximal number of non-zero basis functions:      472 in task    35
  | Maximal number of non-zero basis functions:      442 in task    36
  | Maximal number of non-zero basis functions:      470 in task    37
  | Maximal number of non-zero basis functions:      441 in task    38
  | Maximal number of non-zero basis functions:      450 in task    39
  | Maximal number of non-zero basis functions:      443 in task    40
  | Maximal number of non-zero basis functions:      464 in task    41
  | Maximal number of non-zero basis functions:      466 in task    42
  | Maximal number of non-zero basis functions:      465 in task    43
  | Maximal number of non-zero basis functions:      451 in task    44
  | Maximal number of non-zero basis functions:      476 in task    45
  | Maximal number of non-zero basis functions:      454 in task    46
  | Maximal number of non-zero basis functions:      467 in task    47
  | Maximal number of non-zero basis functions:      456 in task    48
  | Maximal number of non-zero basis functions:      443 in task    49
  | Maximal number of non-zero basis functions:      469 in task    50
  | Maximal number of non-zero basis functions:      460 in task    51
  | Maximal number of non-zero basis functions:      465 in task    52
  | Maximal number of non-zero basis functions:      462 in task    53
  | Maximal number of non-zero basis functions:      481 in task    54
  Allocating        0.334 MB for KS_eigenvector_complex
  Integrating Hamiltonian matrix: batch-based integration.
  Time summed over all CPUs for integration: real work       11.394 s, elapsed       11.899 s
  Integrating overlap matrix.
  Time summed over all CPUs for integration: real work        8.008 s, elapsed        8.418 s
  Decreasing sparse matrix size:
   Tolerance:  9.999999824516700E-014
   Hamiltonian matrix
  | Array has   252252 nonzero elements out of   294445 elements
  | Sparsity factor is 0.143
   Overlap matrix
  | Array has   236856 nonzero elements out of   294445 elements
  | Sparsity factor is 0.196
  New size of hamiltonian matrix:      252373
  Deallocating overlap matrix.

  Updating Kohn-Sham eigenvalues and eigenvectors using ELSI and the ELPA eigensolver.
  Singularity check in k-point 1 (analysis for other k-points may follow below):
  Overlap matrix is not singular
  | Lowest and highest eigenvalues :  0.6940E-03,  0.8026E+01
  Finished singularity check of overlap matrix
  | Time :     0.011 s
  Finished Cholesky decomposition
  | Time :     0.002 s
  Finished transformation to standard eigenproblem
  | Time :     0.003 s
  Starting ELPA eigensolver
  Finished solving standard eigenproblem
  | Time :     0.014 s
  Finished back-transformation of eigenvectors
  | Time :     0.002 s

  Obtaining occupation numbers and chemical potential using ELSI.
  | Chemical potential (Fermi level):    -7.52963967 eV
  Writing Kohn-Sham eigenvalues.
  K-point:       1 at    0.000000    0.000000    0.000000 (in units of recip. lattice)

  State    Occupation    Eigenvalue [Ha]    Eigenvalue [eV]
      1       2.00000         -10.154651         -276.32211
      2       2.00000         -10.154651         -276.32211
      3       2.00000         -10.154457         -276.31683
      4       2.00000         -10.154457         -276.31683
      5       2.00000         -10.154456         -276.31681
      6       2.00000         -10.154456         -276.31680
      7       2.00000         -10.154067         -276.30623
      8       2.00000         -10.154067         -276.30623
      9       2.00000         -10.154067         -276.30621
     10       2.00000         -10.154066         -276.30620
     11       2.00000         -10.153873         -276.30093
     12       2.00000         -10.153872         -276.30093
     13       2.00000          -0.983485          -26.76198
     14       2.00000          -0.977579          -26.60129
     15       2.00000          -0.875774          -23.83103
     16       2.00000          -0.875773          -23.83100
     17       2.00000          -0.870543          -23.68868
     18       2.00000          -0.870541          -23.68863
     19       2.00000          -0.739494          -20.12266
     20       2.00000          -0.739493          -20.12264
     21       2.00000          -0.738059          -20.08361
     22       2.00000          -0.738058          -20.08358
     23       2.00000          -0.663667          -18.05930
     24       2.00000          -0.655758          -17.84408
     25       2.00000          -0.613890          -16.70480
     26       2.00000          -0.613331          -16.68959
     27       2.00000          -0.575635          -15.66383
     28       2.00000          -0.572741          -15.58507
     29       2.00000          -0.548468          -14.92457
     30       2.00000          -0.548463          -14.92444
     31       2.00000          -0.548442          -14.92387
     32       2.00000          -0.548438          -14.92375
     33       2.00000          -0.513892          -13.98371
     34       2.00000          -0.496780          -13.51808
     35       2.00000          -0.496778          -13.51802
     36       2.00000          -0.495440          -13.48161
     37       2.00000          -0.495438          -13.48155
     38       2.00000          -0.474914          -12.92308
     39       2.00000          -0.410276          -11.16419
     40       2.00000          -0.410275          -11.16414
     41       2.00000          -0.382789          -10.41621
     42       2.00000          -0.382785          -10.41610
     43       0.00000          -0.207787           -5.65418
     44       0.00000          -0.207779           -5.65397
     45       0.00000          -0.200493           -5.45570
     46       0.00000          -0.200487           -5.45552
     47       0.00000          -0.135246           -3.68024
     48       0.00000          -0.110066           -2.99504
     49       0.00000          -0.069188           -1.88269
     50       0.00000          -0.060349           -1.64218
     51       0.00000          -0.025715           -0.69974
     52       0.00000          -0.011391           -0.30997
     53       0.00000          -0.011359           -0.30910
     54       0.00000          -0.001636           -0.04453
     55       0.00000          -0.001607           -0.04374
     56       0.00000           0.013166            0.35827
     57       0.00000           0.060439            1.64462
     58       0.00000           0.060453            1.64501
     59       0.00000           0.065968            1.79508
     60       0.00000           0.065985            1.79555
     61       0.00000           0.106633            2.90162
     62       0.00000           0.144249            3.92520
     63       0.00000           0.144265            3.92565
     64       0.00000           0.151507            4.12272
     65       0.00000           0.151521            4.12309
     66       0.00000           0.183276            4.98720
     67       0.00000           0.216897            5.90208
     68       0.00000           0.216915            5.90256
     69       0.00000           0.225036            6.12355
     70       0.00000           0.225048            6.12387
     71       0.00000           0.225685            6.14119
     72       0.00000           0.257147            6.99732
     73       0.00000           0.257172            6.99799
     74       0.00000           0.259009            7.04800
     75       0.00000           0.274487            7.46918
     76       0.00000           0.288917            7.86184
     77       0.00000           0.288998            7.86403
     78       0.00000           0.296522            8.06878
[...]
  -----------------------------------------------------------------------------------------------------------------------------------------------------------
  Sum of all contributions        :    -0.2050179849E-01   -0.4211011685E-01   -0.6381531116E-02   -0.1085671049E-07    0.1431443082E-07    0.1690362088E-02

  +-------------------------------------------------------------------+
  |              Analytical stress tensor - Symmetrized               |
  |                  Cartesian components [eV/A**3]                   |
  +-------------------------------------------------------------------+
  |                x                y                z                |
  |                                                                   |
  |  x        -0.00008406      -0.00000000       0.00000000           |
  |  y        -0.00000000      -0.00017267       0.00000693           |
  |  z         0.00000000       0.00000693      -0.00002617           |
  |                                                                   |
  |  Pressure:       0.00009430   [eV/A**3]                           |
  |                                                                   |
  +-------------------------------------------------------------------+

 * Warning: Stress tensor is anisotropic. Be aware that pressure is an isotropic quantity.

  Timings for VdW correction (Tkatchenko-Scheffler 2009 or later):
  | CPU time:        0.667 s, Wall clock time:        0.667 s.
  Removing unitary transformations (pure translations, rotations) from forces on atoms.
  Atomic forces before filtering:
  | Net force on center of mass :   0.155132E-10  0.110465E-06 -0.293745E-06 eV/A
  Atomic forces after filtering:
  | Net force on center of mass :   0.850707E-22 -0.418139E-17  0.418139E-17 eV/A

  Energy and forces in a compact form:
  | Total energy uncorrected      :         -0.126287871326917E+05 eV
  | Total energy corrected        :         -0.126287871326917E+05 eV  <-- do not rely on this value for anything but (periodic) metals
  | Electronic free energy        :         -0.126287871326917E+05 eV
  Total atomic forces (unitary forces cleaned) [eV/Ang]:
  |    1         -0.137483556296210E-06         -0.297776161236188E-02          0.114720414321369E-02
  |    2         -0.751931727864891E-08          0.220868252619518E-02         -0.943713620887548E-02
  |    3         -0.133942826632184E-06          0.138796337591509E-02          0.195008593112776E-02
  |    4         -0.142461849673001E-07         -0.868174858655695E-02          0.214121146122520E-02
  |    5         -0.127030757891799E-06          0.594167624523021E-03         -0.231245408023655E-02
  |    6         -0.106608423930901E-07          0.714638866820680E-02          0.638409607072714E-02
  |    7         -0.694176998468005E-07          0.353534294299202E-02          0.319379435867942E-02
  |    8         -0.891224395097883E-07         -0.114015101796171E-02         -0.381018976551410E-02
  |    9         -0.717405795891303E-07          0.722802814969353E-03         -0.478270642353478E-02
  |   10         -0.901868858527363E-07         -0.314420593051796E-02          0.249110148747304E-02
  |   11         -0.739894529925385E-07         -0.410627722240699E-02          0.130689049282276E-02
  |   12         -0.895707154041871E-07          0.398678690648481E-02          0.138505845645185E-02
  |   13          0.134336298949909E-06         -0.138746888047273E-02         -0.194183184902521E-02
  |   14          0.132406616957779E-07          0.868495854763137E-02         -0.213442763163834E-02
  |   15          0.128163456314933E-06         -0.597769905157897E-03          0.230036490229449E-02
  |   16          0.101621682338788E-07         -0.714152296950516E-02         -0.639191583515047E-02
  |   17          0.137634835803288E-06          0.297074446035333E-02         -0.115383579176907E-02
  |   18          0.728951478898041E-08         -0.221040420857743E-02          0.944624751067294E-02
  |   19          0.717982047134904E-07         -0.723942206677840E-03          0.477003664557379E-02
  |   20          0.903451893904102E-07          0.314381757541572E-02         -0.248908747020286E-02
  |   21          0.737799289998006E-07          0.410984716838307E-02         -0.130750950937720E-02
  |   22          0.895978933410438E-07         -0.398474503038634E-02         -0.137392914043019E-02
  |   23          0.694602901062181E-07         -0.353466838507663E-02         -0.319076854837604E-02
  |   24          0.891028163166828E-07          0.113916334458976E-02          0.380970079386820E-02

  ------------------------------------ 
  Start decomposition of the XC Energy 
  ------------------------------------ 
  X and C from original XC functional choice 
  Hartree-Fock Energy :          0.000000000 Ha              0.000000000 eV
  X Energy            :        -66.189866347 Ha          -1801.117903177 eV
  C Energy            :         -2.763205209 Ha            -75.190639385 eV
  Total XC Energy     :        -68.953071556 Ha          -1876.308542562 eV
  ------------------------------------ 
  LDA X and C from self-consistent density 
  X Energy LDA        :        -59.919182025 Ha          -1630.483901005 eV
  C Energy LDA        :         -5.344501746 Ha           -145.431291961 eV
  ------------------------------------ 
  End decomposition of the XC Energy 
  ------------------------------------ 

------------------------------------------------------------
  Relaxation / MD: End force evaluation.       :  max(cpu_time)    wall_clock(cpu1)
  | Time for this force evaluation             :       14.677 s          15.199 s

------------------------------------------------------------
  Geometry optimization: Attempting to predict improved coordinates.

  +-------------------------------------------------------------------+
  | Generalized derivatives on lattice vectors [eV/A]                 |
  +-------------------------------------------------------------------+
  |lattice_vector      -0.00322708      -0.00000000       0.00000000  |
  |lattice_vector      -0.00000000      -0.00617680      -0.00029919  |
  |lattice_vector       0.00000000       0.00029302      -0.00110707  |
  +-------------------------------------------------------------------+
  | Forces on lattice vectors cleaned from atomic contributions [eV/A]|
  +-------------------------------------------------------------------+
  |lattice_vector       0.00322708       0.00000000      -0.00000000  |
  |lattice_vector       0.00000000       0.00617680       0.00029919  |
  |lattice_vector      -0.00000000      -0.00029302       0.00110707  |
  +-------------------------------------------------------------------+
  Removing unitary transformations (pure translations, rotations) from forces on atoms.
  Atomic forces before filtering:
  | Net force on center of mass :   0.850707E-22 -0.418139E-17  0.418139E-17 eV/A
  Atomic forces after filtering:
  | Net force on center of mass :   0.850707E-22 -0.400717E-17 -0.418139E-17 eV/A
  Net remaining forces (excluding translations, rotations) in present geometry:
  || Forces on atoms   || =   0.944625E-02 eV/A.
  || Forces on lattice || =   0.617680E-02 eV/A^3.
  Maximum force component is  0.944625E-02 eV/A.
  Present geometry is converged.

------------------------------------------------------------
  Final atomic structure:
                         x [A]             y [A]             z [A]
  lattice_vector         6.35304499       -0.00000001        0.00000001
  lattice_vector        -0.00000000        6.65964869       -0.00020417
  lattice_vector         0.00000001       -3.32667161        5.76440259

            atom         0.88349345       -1.06968482        2.94510795  C
            atom         0.88349346       -1.31006741        4.32346913  C
            atom         0.88349346       -0.23983908        5.21904713  C
            atom         0.88349346        1.07398410        4.73802095  C
            atom         0.88349345        1.31443472        3.36335344  C
            atom         0.88349345        0.24098047        2.46598445  C
            atom         0.88349348       -1.90648188        2.24689737  H
            atom         0.88349351       -2.33611942        4.69411137  H
            atom         0.88349349       -0.42606872        6.29284037  H
            atom         0.88349351        1.90809633        5.44118805  H
            atom         0.88349348        2.33753879        2.98791435  H
            atom         0.88349350        0.43285634        1.39204423  H
            atom         4.06001565        3.57281703        0.54515295  C
            atom         4.06001566        2.25899377        1.02617895  C
            atom         4.06001566        2.01854335        2.40084672  C
            atom         4.06001566        3.09199768        3.29821548  C
            atom         4.06001566        4.40266315        2.81909206  C
            atom         4.06001566        4.64304554        1.44073071  C
            atom         4.06001562        3.75904718       -0.52863984  H
            atom         4.06001560        1.42488174        0.32301159  H
            atom         4.06001563        0.99543922        2.77628592  H
            atom         4.06001561        2.90012116        4.37215527  H
            atom         4.06001563        5.23946037        3.51730233  H
            atom         4.06001561        5.66909754        1.07008841  H

  Fractional coordinates:
                         L1                L2                L3
       atom_frac         0.13906614        0.09459447        0.51091630  C
       atom_frac         0.13906614        0.17794538        0.75003531  C
       atom_frac         0.13906614        0.41626124        0.90540729  C
       atom_frac         0.13906614        0.57186080        0.82196509  C
       atom_frac         0.13906614        0.48884019        0.58348687  C
       atom_frac         0.13906614        0.24988472        0.42780417  C
       atom_frac         0.13906615       -0.09156558        0.38978518  H
       atom_frac         0.13906615        0.05599203        0.81432945  H
       atom_frac         0.13906615        0.48135035        1.09168965  H
       atom_frac         0.13906615        0.75804722        0.94395607  H
       atom_frac         0.13906615        0.60993519        0.51836055  H
       atom_frac         0.13906615        0.18563072        0.24149634  H
       atom_frac         0.63906610        0.58373903        0.09459300  C
       atom_frac         0.63906610        0.42813945        0.17803516  C
       atom_frac         0.63906610        0.51116011        0.41651343  C
       atom_frac         0.63906610        0.75011557        0.57219609  C
       atom_frac         0.63906610        0.90540585        0.48908397  C
       atom_frac         0.63906610        0.82205490        0.24996494  C
       atom_frac         0.63906609        0.51865004       -0.09168928  H
       atom_frac         0.63906609        0.24195303        0.05604414  H
       atom_frac         0.63906609        0.39006511        0.48163977  H
       atom_frac         0.63906609        0.81436944        0.75850385  H
       atom_frac         0.63906609        1.09156590        0.61021504  H
       atom_frac         0.63906609        0.94400824        0.18567078  H
------------------------------------------------------------
  |------------------------------------------------------
  | Final ELSI Output
  |------------------------------------------------------
  |
  | Physical Properties
  |   Number of electrons       :        0.84000000E+02
  |   Number of spins           :                     1
  |   Number of k-points        :                    14
  |   Number of states          :                    96
  |
  | Matrix Properties
  |   Matrix format             :           BLACS_DENSE
  |   Number of basis functions :                   228
  |   Matrix sparsity           :        0.36934441E-02
  |
  | Computational Details
  |   Parallel mode             :            MULTI_PROC
  |   Number of MPI tasks       :                    55
  |   Solver requested          :                  ELPA
  |   Number of ELSI calls      :                   114
  |
  |------------------------------------------------------
  | ELSI Project (c)  elsi-interchange.org
  |------------------------------------------------------

------------------------------------------------------------------------------
  Final output of selected total energy values:

  The following output summarizes some interesting total energy values
  at the end of a run (AFTER all relaxation, molecular dynamics, etc.).

  | Total energy of the DFT / Hartree-Fock s.c.f. calculation      :         -12628.787132692 eV
  | Final zero-broadening corrected energy (caution - metals only) :         -12628.787132692 eV
  | For reference only, the value of 1 Hartree used in FHI-aims is :             27.211384500 eV
  | For reference only, the overall average (free atom contribution
  | + realspace contribution) of the electrostatic potential after
  | s.c.f. convergence is                                          :             -6.398101528 eV

  Before relying on these values, please be sure to understand exactly which
  total energy value is referred to by a given number. Different objects may
  all carry the same name 'total energy'. Definitions:

  Total energy of the DFT / Hartree-Fock s.c.f. calculation:
  | Note that this energy does not include ANY quantities calculated after the
  | s.c.f. cycle, in particular not ANY RPA, MP2, etc. many-body perturbation terms.

  Final zero-broadening corrected energy:
  | For metallic systems only, a broadening of the occupation numbers at the Fermi
  | level can be extrapolated back to zero broadening by an electron-gas inspired
  | formula. For all systems that are not real metals, this value can be
  | meaningless and should be avoided.

------------------------------------------------------------------------------
  Methods described in the following list of references were used in this FHI-aims run.
  If you publish the results, please make sure to cite these reference if they apply.
  FHI-aims is an academic code, and for our developers (often, Ph.D. students
  and postdocs), scientific credit in the community is essential.
  Thank you for helping us!

  For any use of FHI-aims, please cite:

    Volker Blum, Ralf Gehrke, Felix Hanke, Paula Havu, Ville Havu,
    Xinguo Ren, Karsten Reuter, and Matthias Scheffler
    'Ab initio molecular simulations with numeric atom-centered orbitals'
    Computer Physics Communications 180, 2175-2196 (2009)
    http://dx.doi.org/10.1016/j.cpc.2009.06.022


  For the analytical stress tensor used in your run, please cite:

    Franz Knuth, Christian Carbogno, Viktor Atalla, Volker Blum, Matthias Scheffler
    'All-electron formalism for total energy strain derivatives and
    stress tensor components for numeric atom-centered orbitals'
    Computer Physics Communications 190, 33-50 (2015).
    http://dx.doi.org/10.1016/j.cpc.2015.01.003


  The provided symmetry information was generated with SPGlib:

    Atsushi Togo, Yusuke Seto, Dimitar Pashov
    SPGlib 1.7.3 obtained from http://spglib.sourceforge.net
    Copyright (C) 2008 Atsushi Togo


  The scalable eigensolver library ELPA was used in your run.
  ELPA is essential especially for large systems on hundreds or thousands of CPUs.
  For ELPA, please cite:

    Andreas Marek, Volker Blum, Rainer Johanni, Ville Havu, Bruno Lang,
    Thomas Auckenthaler, Alexander Heinecke, Hans-Joachim Bungartz, and Hermann Lederer,
    'The ELPA Library - Scalable Parallel Eigenvalue Solutions
    for Electronic Structure Theory and Computational Science'
    The Journal of Physics: Condensed Matter 26, 213201 (2014).
    http://dx.doi.org/10.1088/0953-8984/26/21/213201


  The ELSI infrastructure was used in your run to solve the Kohn-Sham electronic structure.
  Please check out http://elsi-interchange.org to learn more.
  If scalability is important for your project, please acknowledge ELSI by citing:

    V. W-z. Yu, F. Corsetti, A. Garcia, W. P. Huhn, M. Jacquelin, W. Jia,
    B. Lange, L. Lin, J. Lu, W. Mi, A. Seifitokaldani, A. Vazquez-Mayagoitia,
    C. Yang, H. Yang, and V. Blum
    'ELSI: A unified software interface for Kohn-Sham electronic structure solvers'
    Computer Physics Communications 222, 267-285 (2018).
    http://dx.doi.org/10.1016/j.cpc.2017.09.007


  For the real-space grid partitioning and parallelization used in this calculation, please cite:

    Ville Havu, Volker Blum, Paula Havu, and Matthias Scheffler,
    'Efficient O(N) integration for all-electron electronic structure calculation'
    'using numerically tabulated basis functions'
    Journal of Computational Physics 228, 8367-8379 (2009).
    http://dx.doi.org/10.1016/j.jcp.2009.08.008

  Of course, there are many other important community references, e.g., those cited in the
  above references. Our list is limited to references that describe implementations in the
  FHI-aims code. The reason is purely practical (length of this list) - please credit others as well.

------------------------------------------------------------
          Leaving FHI-aims.
          Date     :  20191215, Time     :  143713.094

          Computational steps:
          | Number of self-consistency cycles          :          113
          | Number of SCF (re)initializations          :           15
          | Number of relaxation steps                 :           14

          Detailed time accounting                     :  max(cpu_time)    wall_clock(cpu1)
          | Total time                                 :      265.959 s         266.029 s
          | Preparation time                           :        0.449 s           0.448 s
          | Boundary condition initalization           :        2.976 s           3.033 s
          | Grid partitioning                          :        1.207 s           1.205 s
          | Preloading free-atom quantities on grid    :        5.713 s           5.713 s
          | Free-atom superposition energy             :        0.721 s           0.721 s
          | Total time for integrations                :       26.840 s          26.816 s
          | Total time for solution of K.-S. equations :        3.638 s           3.640 s
          | Total time for EV reorthonormalization     :        0.105 s           0.082 s
          | Total time for density & force components  :      122.095 s         123.840 s
          | Total time for mixing & preconditioning    :       17.363 s          17.374 s
          | Total time for Hartree multipole update    :        0.283 s           0.273 s
          | Total time for Hartree multipole sum       :       70.517 s          70.514 s
          | Total time for total energy evaluation     :        0.080 s           0.078 s
          | Total time for vdW correction              :       10.213 s          10.214 s

          Partial memory accounting:
          | Residual value for overall tracked memory usage across tasks:     0.000000 MB (should be 0.000000 MB)
          | Peak values for overall tracked memory usage:
          |   Minimum:       14.093 MB (on task 11 after allocating d_wave)
          |   Maximum:       15.024 MB (on task 48 after allocating d_wave)
          |   Average:       14.451 MB
          | Largest tracked array allocation:
          |   Minimum:        2.619 MB (hessian_basis_wave on task  5)
          |   Maximum:        2.792 MB (hessian_basis_wave on task 22)
          |   Average:        2.691 MB
          Note:  These values currently only include a subset of arrays which are explicitly tracked.
          The "true" memory usage will be greater.

          Have a nice day.
------------------------------------------------------------
