------------------------------------------------------------
          Invoking FHI-aims ...
          Version 190522
          Compiled on 2019/06/18 at 22:17:48 on host coe.psc.edu.

          When using FHI-aims, please cite the following reference:

          Volker Blum, Ralf Gehrke, Felix Hanke, Paula Havu,
          Ville Havu, Xinguo Ren, Karsten Reuter, and Matthias Scheffler,
          'Ab Initio Molecular Simulations with Numeric Atom-Centered Orbitals',
          Computer Physics Communications 180, 2175-2196 (2009)

          For any questions about FHI-aims, please visit the aimsclub website
          with its forums and wiki. Contributions to both the forums and the
          wiki are warmly encouraged - they are for you, and everyone is welcome there.

------------------------------------------------------------



  Date     :  20191214, Time     :  002428.945
  Time zero on CPU 1             :   0.138605600000000E+01  s.
  Internal wall clock time zero  :           345515068.945  s.

  FHI-aims created a unique identifier for this run for later identification
  aims_uuid : F2F1B387-9165-4920-AA4C-2E3C4C1937F7

  Using       56 parallel tasks.
  Task        0 on host d015 reporting.
  Task        1 on host d015 reporting.
  Task        2 on host d015 reporting.
  Task        3 on host d015 reporting.
  Task        4 on host d015 reporting.
  Task        5 on host d015 reporting.
  Task        6 on host d015 reporting.
  Task        7 on host d015 reporting.
  Task        8 on host d015 reporting.
  Task        9 on host d015 reporting.
  Task       10 on host d015 reporting.
  Task       11 on host d015 reporting.
  Task       12 on host d015 reporting.
  Task       13 on host d015 reporting.
  Task       14 on host d015 reporting.
  Task       15 on host d015 reporting.
  Task       16 on host d015 reporting.
  Task       17 on host d015 reporting.
  Task       18 on host d015 reporting.
  Task       19 on host d015 reporting.
  Task       20 on host d015 reporting.
  Task       21 on host d015 reporting.
  Task       22 on host d015 reporting.
  Task       23 on host d015 reporting.
  Task       24 on host d015 reporting.
  Task       25 on host d015 reporting.
  Task       26 on host d015 reporting.
  Task       27 on host d015 reporting.
  Task       28 on host d015 reporting.
  Task       29 on host d015 reporting.
  Task       30 on host d015 reporting.
  Task       31 on host d015 reporting.
  Task       32 on host d015 reporting.
  Task       33 on host d015 reporting.
  Task       34 on host d015 reporting.
  Task       35 on host d015 reporting.
  Task       36 on host d015 reporting.
  Task       37 on host d015 reporting.
  Task       38 on host d015 reporting.
  Task       39 on host d015 reporting.
  Task       40 on host d015 reporting.
  Task       41 on host d015 reporting.
  Task       42 on host d015 reporting.
  Task       43 on host d015 reporting.
  Task       44 on host d015 reporting.
  Task       45 on host d015 reporting.
  Task       46 on host d015 reporting.
  Task       47 on host d015 reporting.
  Task       48 on host d015 reporting.
  Task       49 on host d015 reporting.
  Task       50 on host d015 reporting.
  Task       51 on host d015 reporting.
  Task       52 on host d015 reporting.
  Task       53 on host d015 reporting.
  Task       54 on host d015 reporting.
  Task       55 on host d015 reporting.

  Performing system and environment tests:
  | Environment variable OMP_NUM_THREADS correctly set to 1.
  | Maximum stacksize for task 0: unlimited
  | Maximum stacksize for task 1: unlimited
  | Maximum stacksize for task 2: unlimited
  | Maximum stacksize for task 3: unlimited
  | Maximum stacksize for task 4: unlimited
  | Maximum stacksize for task 5: unlimited
  | Maximum stacksize for task 6: unlimited
  | Maximum stacksize for task 7: unlimited
  | Maximum stacksize for task 8: unlimited
  | Maximum stacksize for task 9: unlimited
  | Maximum stacksize for task 10: unlimited
  | Maximum stacksize for task 11: unlimited
  | Maximum stacksize for task 12: unlimited
  | Maximum stacksize for task 13: unlimited
  | Maximum stacksize for task 14: unlimited
  | Maximum stacksize for task 15: unlimited
  | Maximum stacksize for task 16: unlimited
  | Maximum stacksize for task 17: unlimited
  | Maximum stacksize for task 18: unlimited
  | Maximum stacksize for task 19: unlimited
  | Maximum stacksize for task 20: unlimited
  | Maximum stacksize for task 21: unlimited
  | Maximum stacksize for task 22: unlimited
  | Maximum stacksize for task 23: unlimited
  | Maximum stacksize for task 24: unlimited
  | Maximum stacksize for task 25: unlimited
  | Maximum stacksize for task 26: unlimited
  | Maximum stacksize for task 27: unlimited
  | Maximum stacksize for task 28: unlimited
  | Maximum stacksize for task 29: unlimited
  | Maximum stacksize for task 30: unlimited
  | Maximum stacksize for task 31: unlimited
  | Maximum stacksize for task 32: unlimited
  | Maximum stacksize for task 33: unlimited
  | Maximum stacksize for task 34: unlimited
  | Maximum stacksize for task 35: unlimited
  | Maximum stacksize for task 36: unlimited
  | Maximum stacksize for task 37: unlimited
  | Maximum stacksize for task 38: unlimited
  | Maximum stacksize for task 39: unlimited
  | Maximum stacksize for task 40: unlimited
  | Maximum stacksize for task 41: unlimited
  | Maximum stacksize for task 42: unlimited
  | Maximum stacksize for task 43: unlimited
  | Maximum stacksize for task 44: unlimited
  | Maximum stacksize for task 45: unlimited
  | Maximum stacksize for task 46: unlimited
  | Maximum stacksize for task 47: unlimited
  | Maximum stacksize for task 48: unlimited
  | Maximum stacksize for task 49: unlimited
  | Maximum stacksize for task 50: unlimited
  | Maximum stacksize for task 51: unlimited
  | Maximum stacksize for task 52: unlimited
  | Maximum stacksize for task 53: unlimited
  | Maximum stacksize for task 54: unlimited
  | Maximum stacksize for task 55: unlimited
  | Current stacksize for task 0: unlimited
  | Current stacksize for task 1: unlimited
  | Current stacksize for task 2: unlimited
  | Current stacksize for task 3: unlimited
  | Current stacksize for task 4: unlimited
  | Current stacksize for task 5: unlimited
  | Current stacksize for task 6: unlimited
  | Current stacksize for task 7: unlimited
  | Current stacksize for task 8: unlimited
  | Current stacksize for task 9: unlimited
  | Current stacksize for task 10: unlimited
  | Current stacksize for task 11: unlimited
  | Current stacksize for task 12: unlimited
  | Current stacksize for task 13: unlimited
  | Current stacksize for task 14: unlimited
  | Current stacksize for task 15: unlimited
  | Current stacksize for task 16: unlimited
  | Current stacksize for task 17: unlimited
  | Current stacksize for task 18: unlimited
  | Current stacksize for task 19: unlimited
  | Current stacksize for task 20: unlimited
  | Current stacksize for task 21: unlimited
  | Current stacksize for task 22: unlimited
  | Current stacksize for task 23: unlimited
  | Current stacksize for task 24: unlimited
  | Current stacksize for task 25: unlimited
  | Current stacksize for task 26: unlimited
  | Current stacksize for task 27: unlimited
  | Current stacksize for task 28: unlimited
  | Current stacksize for task 29: unlimited
  | Current stacksize for task 30: unlimited
  | Current stacksize for task 31: unlimited
  | Current stacksize for task 32: unlimited
  | Current stacksize for task 33: unlimited
  | Current stacksize for task 34: unlimited
  | Current stacksize for task 35: unlimited
  | Current stacksize for task 36: unlimited
  | Current stacksize for task 37: unlimited
  | Current stacksize for task 38: unlimited
  | Current stacksize for task 39: unlimited
  | Current stacksize for task 40: unlimited
  | Current stacksize for task 41: unlimited
  | Current stacksize for task 42: unlimited
  | Current stacksize for task 43: unlimited
  | Current stacksize for task 44: unlimited
  | Current stacksize for task 45: unlimited
  | Current stacksize for task 46: unlimited
  | Current stacksize for task 47: unlimited
  | Current stacksize for task 48: unlimited
  | Current stacksize for task 49: unlimited
  | Current stacksize for task 50: unlimited
  | Current stacksize for task 51: unlimited
  | Current stacksize for task 52: unlimited
  | Current stacksize for task 53: unlimited
  | Current stacksize for task 54: unlimited
  | Current stacksize for task 55: unlimited
  | Checking for scalapack...
  | Testing pdtran()...
  | All pdtran() tests passed.

  Obtaining array dimensions for all initial allocations:
  
  -----------------------------------------------------------------------
  Parsing control.in (first pass over file, find array dimensions only).
  The contents of control.in will be repeated verbatim below
  unless switched off by setting 'verbatim_writeout .false.' .
  in the first line of control.in .
  -----------------------------------------------------------------------
  
    #########################################################################################
    #
    #   input file control.in tight for scaling studies
    #
    #########################################################################################
    #
    #  Physical model
    #
      xc                 pbe
      spin               none
      relativistic       none
      override_relativity .true.
      charge             0.
    #
    #  SCF convergence
    #
      occupation_type    gaussian 0.1
      mixer              pulay
        n_max_pulay        10
        charge_mix_param   0.3
      sc_accuracy_rho    1E-4
      sc_accuracy_eev    1E-2
      sc_accuracy_etot   1E-4
      sc_accuracy_forces 1E-2
      sc_iter_limit      500
  
  
  #    restart restart_file
    #KS_method scalapack_old
    #KS_method serial also works
   hessian_to_restart_geometry     .false.
  
    #
    #
    #  Eigenvalue solution
      #KS_method  lapack
    #  partition_type rho_r2 ## !! use only if on BG you run into an unexpected
    #memory shortage per processor!!
  
    #
    #  accuracy / efficiency for normal scf
    #
    #  density_update_method density_matrix
    #  collect_eigenvectors .false.
    #  empty_states     3 ## This is the setting for light elements. Careful!!
    #
    #  use_local_index .true.
    ##  load_balancing .true.
    #  distributed_spline_storage .false.  ## Helps save memory but may hurt your
    #  performance. Test effect for VERY MANY CPUs.
    #
    #  For periodic boundary conditions
    #
    #    k_grid 1 1 1
    #    output k_eigenvalue 1
  
    #
    #  Relaxation
    #
    #  restart_relaxations .true.
     relax_geometry   bfgs 1.e-2
      vdw_correction_hirshfeld
    #  output Hirshfeld-I
    #
    ################################################################################
    ################################################################################
    #
    #  FHI-aims code project
    #  VB, Fritz-Haber Institut, 2009
    #
    #  Suggested "light" defaults for H atom (to be pasted into control.in file)
    #  Be sure to double-check any results obtained with these settings for post-processing,
    #  e.g., with the "tight" defaults and larger basis sets.
    #
    ################################################################################
      species        H
    #     global species definitions
        nucleus             1
        mass                1.00794
    #
        l_hartree           4
    #
        cut_pot             3.5  1.5  1.0
        basis_dep_cutoff    1e-4
    #
        radial_base         24 5.0
        radial_multiplier   1
        angular_grids       specified
          division   0.2421   50
          division   0.3822  110
          division   0.4799  194
          division   0.5341  302
    #      division   0.5626  434
    #      division   0.5922  590
    #      division   0.6542  770
    #      division   0.6868 1202
    #      outer_grid  770
          outer_grid  302
    ################################################################################
    #
    #  Definition of "minimal" basis
    #
    ################################################################################
    #     valence basis states
        valence      1  s   1.
    #     ion occupancy
        ion_occ      1  s   0.5
    ################################################################################
    #
    #  Suggested additional basis functions. For production calculations,
    #  uncomment them one after another (the most important basis functions are
    #  listed first).
    #
    #  Basis constructed for dimers: 0.5 A, 0.7 A, 1.0 A, 1.5 A, 2.5 A
    #
    ################################################################################
    #  "First tier" - improvements: -1014.90 meV to -62.69 meV
         hydro 2 s 2.1
         hydro 2 p 3.5
    #  "Second tier" - improvements: -12.89 meV to -1.83 meV
    #     hydro 1 s 0.85
    #     hydro 2 p 3.7
    #     hydro 2 s 1.2
    #     hydro 3 d 7
    #  "Third tier" - improvements: -0.25 meV to -0.12 meV
    #     hydro 4 f 11.2
    #     hydro 3 p 4.8
    #     hydro 4 d 9
    #     hydro 3 s 3.2
    ################################################################################
    #
    #  FHI-aims code project
    #  VB, Fritz-Haber Institut, 2009
    #
    #  Suggested "light" defaults for C atom (to be pasted into control.in file)
    #  Be sure to double-check any results obtained with these settings for post-processing,
    #  e.g., with the "tight" defaults and larger basis sets.
    #
    ################################################################################
      species        C
    #     global species definitions
        nucleus             6
        mass                12.0107
    #
        l_hartree           4
    #
        cut_pot             3.5  1.5  1.0
        basis_dep_cutoff    1e-4
    #
        radial_base         34 5.0
        radial_multiplier   1
        angular_grids specified
          division   0.3326   50
          division   0.5710  110
          division   0.7727  194
          division   0.8772  302
    #      division   0.9334  434
    #      division   0.9625  590
    #      division   0.9924  770
    #      division   1.0230  974
    #      division   1.4589 1202
    #     outer_grid  974
         outer_grid 302
    ################################################################################
    #
    #  Definition of "minimal" basis
    #
    ################################################################################
    #     valence basis states
        valence      2  s   2.
        valence      2  p   2.
    #     ion occupancy
        ion_occ      2  s   1.
        ion_occ      2  p   1.
    ################################################################################
    #
    #  Suggested additional basis functions. For production calculations,
    #  uncomment them one after another (the most important basis functions are
    #  listed first).
    #
    #  Constructed for dimers: 1.0 A, 1.25 A, 1.5 A, 2.0 A, 3.0 A
    #
    ################################################################################
    #  "First tier" - improvements: -1214.57 meV to -155.61 meV
         hydro 2 p 1.7
         hydro 3 d 6
         hydro 2 s 4.9
    #  "Second tier" - improvements: -67.75 meV to -5.23 meV
    #     hydro 4 f 9.8
    #     hydro 3 p 5.2
    #     hydro 3 s 4.3
    #     hydro 5 g 14.4
    #     hydro 3 d 6.2
    #  "Third tier" - improvements: -2.43 meV to -0.60 meV
    #     hydro 2 p 5.6
    #     hydro 2 s 1.4
    #     hydro 3 d 4.9
    #     hydro 4 f 11.2
    #  "Fourth tier" - improvements: -0.39 meV to -0.18 meV
    #     hydro 2 p 2.1
    #     hydro 5 g 16.4
    #     hydro 4 d 13.2
    #     hydro 3 s 13.6
    #     hydro 4 f 17.6
    #  Further basis functions - improvements: -0.08 meV and below
    #     hydro 3 s 2
    #     hydro 3 p 6
    #     hydro 4 d 20
    ################################################################################
    #
    #  FHI-aims code project
    #  VB, Fritz-Haber Institut, 2009
    #
    #  Suggested "light" defaults for N atom (to be pasted into control.in file)
    #  Be sure to double-check any results obtained with these settings for post-processing,
    #  e.g., with the "tight" defaults and larger basis sets.
    #
    ################################################################################
      species        N
    #     global species definitions
        nucleus             7
        mass                14.0067
    #
        l_hartree           4
    #
        cut_pot             3.5  1.5  1.0
        basis_dep_cutoff    1e-4
    #
        radial_base         35 5.0
        radial_multiplier   1
        angular_grids       specified
          division   0.2599   50
          division   0.4601  110
          division   0.5885  194
          division   0.6503  302
    #      division   0.6939  434
    #      division   0.7396  590
    #      division   0.7632  770
    #      division   0.8122  974
    #      division   1.1604 1202
    #      outer_grid  974
          outer_grid  302
    ################################################################################
    #
    #  Definition of "minimal" basis
    #
    ################################################################################
    #     valence basis states
        valence      2  s   2.
        valence      2  p   3.
    #     ion occupancy
        ion_occ      2  s   1.
        ion_occ      2  p   2.
    ################################################################################
    #
    #  Suggested additional basis functions. For production calculations,
    #  uncomment them one after another (the most important basis functions are
    #  listed first).
    #
    #  Constructed for dimers: 1.0 A, 1.1 A, 1.5 A, 2.0 A, 3.0 A
    #
    ################################################################################
    #  "First tier" - improvements: -1193.42 meV to -220.60 meV
         hydro 2 p 1.8
         hydro 3 d 6.8
         hydro 3 s 5.8
    #  "Second tier" - improvements: -80.21 meV to -6.86 meV
    #     hydro 4 f 10.8
    #     hydro 3 p 5.8
    #     hydro 1 s 0.8
    #     hydro 5 g 16
    #     hydro 3 d 4.9
    #  "Third tier" - improvements: -4.29 meV to -0.53 meV
    #     hydro 3 s 16
    #     ionic 2 p auto
    #     hydro 3 d 6.6
    #     hydro 4 f 11.6
    #  "Fourth tier" - improvements: -0.75 meV to -0.25 meV
    #     hydro 2 p 4.5
    #     hydro 2 s 2.4
    #     hydro 5 g 14.4
    #     hydro 4 d 14.4
    #     hydro 4 f 16.8
    # Further basis functions - -0.21 meV and below
    #     hydro 3 p 14.8
    #     hydro 3 s 4.4
    #     hydro 3 d 19.6
    #     hydro 5 g 12.8
    ################################################################################
    #
    #  FHI-aims code project
    #  VB, Fritz-Haber Institut, 2009
    #
    #  Suggested "light" defaults for O atom (to be pasted into control.in file)
    #  Be sure to double-check any results obtained with these settings for post-processing,
    #  e.g., with the "tight" defaults and larger basis sets.
    #
    ################################################################################
      species        O
    #     global species definitions
        nucleus             8
        mass                15.9994
    #
        l_hartree           4
    #
        cut_pot             3.5  1.5  1.0
        basis_dep_cutoff    1e-4
    #
        radial_base         36 5.0
        radial_multiplier   1
         angular_grids specified
          division   0.2659   50
          division   0.4451  110
          division   0.6052  194
          division   0.7543  302
    #      division   0.8014  434
    #      division   0.8507  590
    #      division   0.8762  770
    #      division   0.9023  974
    #      division   1.2339 1202
    #      outer_grid 974
          outer_grid 302
    ################################################################################
    #
    #  Definition of "minimal" basis
    #
    ################################################################################
    #     valence basis states
        valence      2  s   2.
        valence      2  p   4.
    #     ion occupancy
        ion_occ      2  s   1.
        ion_occ      2  p   3.
    ################################################################################
    #
    #  Suggested additional basis functions. For production calculations,
    #  uncomment them one after another (the most important basis functions are
    #  listed first).
    #
    #  Constructed for dimers: 1.0 A, 1.208 A, 1.5 A, 2.0 A, 3.0 A
    #
    ################################################################################
    #  "First tier" - improvements: -699.05 meV to -159.38 meV
         hydro 2 p 1.8
         hydro 3 d 7.6
         hydro 3 s 6.4
    #  "Second tier" - improvements: -49.91 meV to -5.39 meV
    #     hydro 4 f 11.6
    #     hydro 3 p 6.2
    #     hydro 3 d 5.6
    #     hydro 5 g 17.6
    #     hydro 1 s 0.75
    #  "Third tier" - improvements: -2.83 meV to -0.50 meV
    #     ionic 2 p auto
    #     hydro 4 f 10.8
    #     hydro 4 d 4.7
    #     hydro 2 s 6.8
    #  "Fourth tier" - improvements: -0.40 meV to -0.12 meV
    #     hydro 3 p 5
    #     hydro 3 s 3.3
    #     hydro 5 g 15.6
    #     hydro 4 f 17.6
    #     hydro 4 d 14
    # Further basis functions - -0.08 meV and below
    #     hydro 3 s 2.1
    #     hydro 4 d 11.6
    #     hydro 3 p 16
    #     hydro 2 s 17.2
    ################################################################################
    #
    #  FHI-aims code project
    #  VB, Fritz-Haber Institut, 2009
    #
    #  Suggested "light" defaults for S atom (to be pasted into control.in file)
    #  Be sure to double-check any results obtained with these settings for post-processing,
    #  e.g., with the "tight" defaults and larger basis sets.
    #
    ################################################################################
      species        S
    #     global species definitions
        nucleus             16
        mass                32.065
    #
        l_hartree           4
    #
        cut_pot             3.5          1.5  1.0
        basis_dep_cutoff    1e-4
    #
        radial_base         44 5.0
        radial_multiplier   1
        angular_grids       specified
          division   0.4665  110
          division   0.5810  194
          division   0.7139  302
    #      division   0.8274  434
    #      division   0.9105  590
    #      division   1.0975  770
    #      division   1.2028  974
    #      outer_grid  974
          outer_grid  302
    ################################################################################
    #
    #  Definition of "minimal" basis
    #
    ################################################################################
    #     valence basis states
        valence      3  s   2.
        valence      3  p   4.
    #     ion occupancy
        ion_occ      3  s   1.
        ion_occ      3  p   3.
    ################################################################################
    #
    #  Suggested additional basis functions. For production calculations,
    #  uncomment them one after another (the most important basis functions are
    #  listed first).
    #
    #  Constructed for dimers: 1.6 A, 1.9 A, 2.5 A, 3.25 A, 4.0 A
    #
    ################################################################################
    #  "First tier" - improvements: -652.81 meV to -45.53 meV
         ionic 3 d auto
         hydro 2 p 1.8
    #     hydro 4 f 7
         ionic 3 s auto
    #  "Second tier" - improvements: -30.20 meV to -1.74 meV
    #     hydro 4 d 6.2
    #     hydro 5 g 10.8
    #     hydro 4 p 4.9
    #     hydro 5 f 10
    #     hydro 1 s 0.8
    #  "Third tier" - improvements: -1.04 meV to -0.20 meV
    #     hydro 3 d 3.9
    #     hydro 3 d 2.7
    #     hydro 5 g 12
    #     hydro 4 p 10.4
    #     hydro 5 f 12.4
    #     hydro 2 s 1.9
    #  "Fourth tier" - improvements: -0.35 meV to -0.06 meV
    #     hydro 4 d 10.4
    #     hydro 4 p 7.2
    #     hydro 4 d 10
    #     hydro 5 g 19.2
    #     hydro 4 s 12
  
  
  -----------------------------------------------------------------------
  Completed first pass over input file control.in .
  -----------------------------------------------------------------------
  
  
  -----------------------------------------------------------------------
  Parsing geometry.in (first pass over file, find array dimensions only).
  The contents of geometry.in will be repeated verbatim below
  unless switched off by setting 'verbatim_writeout .false.' .
  in the first line of geometry.in .
  -----------------------------------------------------------------------
  
  atom 0.00000 1.39600 0.00000 C
  atom 1.20900 0.69800 0.00000 C
  atom 1.20900 -0.69800 0.00000 C
  atom 0.00000 -1.39600 0.00000 C
  atom -1.20900 -0.69800 0.00000 C
  atom -1.20900 0.69800 0.00000 C
  atom 0.00000 2.47900 0.00000 H
  atom 2.14700 1.24000 0.00000 H
  atom 2.14700 -1.24000 0.00000 H
  atom 0.00000 -2.47900 0.00000 H
  atom -2.14700 -1.24000 0.00000 H
  atom -2.14700 1.24000 0.00000 H
  
  -----------------------------------------------------------------------
  Completed first pass over input file geometry.in .
  -----------------------------------------------------------------------
  

  Basic array size parameters:
  | Number of species                 :        5
  | Number of atoms                   :       12
  | Max. basis fn. angular momentum   :        2
  | Max. atomic/ionic basis occupied n:        3
  | Max. number of basis fn. types    :        3
  | Max. radial fns per species/type  :        5
  | Max. logarithmic grid size        :     1357
  | Max. radial integration grid size :       44
  | Max. angular integration grid size:      302
  | Max. angular grid division number :        8
  | Radial grid for Hartree potential :     1357
  | Number of spin channels           :        1

------------------------------------------------------------
          Reading file control.in.
------------------------------------------------------------
  XC: Using PBE gradient-corrected functionals.
  Spin treatment: No spin polarisation.
  Non-relativistic treatment of kinetic energy.
  override_relativity: Explicitly overriding any built-in relativity checks.
  If you use this flag, you should really know what you are doing.
  Charge =   0.000000E+00: Neutral system requested explicitly.
  Occupation type: Gaussian broadening, width =   0.100000E+00 eV.
  Using pulay charge density mixing.
  Pulay mixing - number of memorized iterations:   10
  Charge density mixing - mixing parameter:     0.3000
  Convergence accuracy of self-consistent charge density:  0.1000E-03
  Convergence accuracy of sum of eigenvalues:  0.1000E-01
  Convergence accuracy of total energy:  0.1000E-03
  Convergence accuracy of forces:  0.1000E-01
  Maximum number of s.-c. iterations  :   500
  Hessian information is explicitly not written to geometry.in.next_step for relaxation restart.
  Geometry relaxation: Modified BFGS - TRM (trust radius method) for lattice optimization.
  Convergence accuracy for geometry relaxation: Maximum force <   0.100000E-01 eV/A.
 
  Reading configuration options for species H                   .
  | Found nuclear charge :   1.0000
  | Found atomic mass :    1.00794000000000      amu
  | Found l_max for Hartree potential  :   4
  | Found cutoff potl. onset [A], width [A], scale factor :    3.50000    1.50000    1.00000
  | Threshold for basis-dependent cutoff potential is   0.100000E-03
  | Found data for basic radial integration grid :    24 points, outermost radius =    5.000 A
  | Found multiplier for basic radial grid :   1
  | Found angular grid specification: user-specified.
  | Specified grid contains     5 separate shells.
  | Check grid settings after all constraints further below.
  | Found free-atom valence shell :  1 s   1.000
  | Found free-ion valence shell :  1 s   0.500
  | Found hydrogenic basis function :  2 s   2.100
  | Found hydrogenic basis function :  2 p   3.500
  Species H                   : Missing cutoff potential type.
  Defaulting to exp(1/x)/(1-x)^2 type cutoff potential.
  Species H : No 'logarithmic' tag. Using default grid for free atom:
  | Default logarithmic grid data [bohr] : 0.1000E-03 0.1000E+03 0.1012E+01
  Species H : On-site basis accuracy parameter (for Gram-Schmidt orthonormalisation) not specified.
  Using default value basis_acc =  0.1000000E-03.
  Species H                   : Using default innermost maximum threshold i_radial=  2 for radial functions.
  Species H                   : Default cutoff onset for free atom density etc. : 0.35000000E+01 AA.
  Species H                   : Basic radial grid will be enhanced according to radial_multiplier =   1, to contain    24 grid points.
 
  Reading configuration options for species C                   .
  | Found nuclear charge :   6.0000
  | Found atomic mass :    12.0107000000000      amu
  | Found l_max for Hartree potential  :   4
  | Found cutoff potl. onset [A], width [A], scale factor :    3.50000    1.50000    1.00000
  | Threshold for basis-dependent cutoff potential is   0.100000E-03
  | Found data for basic radial integration grid :    34 points, outermost radius =    5.000 A
  | Found multiplier for basic radial grid :   1
  | Found angular grid specification: user-specified.
  | Specified grid contains     5 separate shells.
  | Check grid settings after all constraints further below.
  | Found free-atom valence shell :  2 s   2.000
  | Found free-atom valence shell :  2 p   2.000
  | Found free-ion valence shell :  2 s   1.000
  | Found free-ion valence shell :  2 p   1.000
  | Found hydrogenic basis function :  2 p   1.700
  | Found hydrogenic basis function :  3 d   6.000
  | Found hydrogenic basis function :  2 s   4.900
  Species C                   : Missing cutoff potential type.
  Defaulting to exp(1/x)/(1-x)^2 type cutoff potential.
  Species C : No 'logarithmic' tag. Using default grid for free atom:
  | Default logarithmic grid data [bohr] : 0.1000E-03 0.1000E+03 0.1012E+01
  Species C : On-site basis accuracy parameter (for Gram-Schmidt orthonormalisation) not specified.
  Using default value basis_acc =  0.1000000E-03.
  Species C                   : Using default innermost maximum threshold i_radial=  2 for radial functions.
  Species C                   : Default cutoff onset for free atom density etc. : 0.35000000E+01 AA.
  Species C                   : Basic radial grid will be enhanced according to radial_multiplier =   1, to contain    34 grid points.
 
  Reading configuration options for species N                   .
  | Found nuclear charge :   7.0000
  | Found atomic mass :    14.0067000000000      amu
  | Found l_max for Hartree potential  :   4
  | Found cutoff potl. onset [A], width [A], scale factor :    3.50000    1.50000    1.00000
  | Threshold for basis-dependent cutoff potential is   0.100000E-03
  | Found data for basic radial integration grid :    35 points, outermost radius =    5.000 A
  | Found multiplier for basic radial grid :   1
  | Found angular grid specification: user-specified.
  | Specified grid contains     5 separate shells.
  | Check grid settings after all constraints further below.
  | Found free-atom valence shell :  2 s   2.000
  | Found free-atom valence shell :  2 p   3.000
  | Found free-ion valence shell :  2 s   1.000
  | Found free-ion valence shell :  2 p   2.000
  | Found hydrogenic basis function :  2 p   1.800
  | Found hydrogenic basis function :  3 d   6.800
  | Found hydrogenic basis function :  3 s   5.800
  Species N                   : Missing cutoff potential type.
  Defaulting to exp(1/x)/(1-x)^2 type cutoff potential.
  Species N : No 'logarithmic' tag. Using default grid for free atom:
  | Default logarithmic grid data [bohr] : 0.1000E-03 0.1000E+03 0.1012E+01
  Species N : On-site basis accuracy parameter (for Gram-Schmidt orthonormalisation) not specified.
  Using default value basis_acc =  0.1000000E-03.
  Species N                   : Using default innermost maximum threshold i_radial=  2 for radial functions.
  Species N                   : Default cutoff onset for free atom density etc. : 0.35000000E+01 AA.
  Species N                   : Basic radial grid will be enhanced according to radial_multiplier =   1, to contain    35 grid points.
 
  Reading configuration options for species O                   .
  | Found nuclear charge :   8.0000
  | Found atomic mass :    15.9994000000000      amu
  | Found l_max for Hartree potential  :   4
  | Found cutoff potl. onset [A], width [A], scale factor :    3.50000    1.50000    1.00000
  | Threshold for basis-dependent cutoff potential is   0.100000E-03
  | Found data for basic radial integration grid :    36 points, outermost radius =    5.000 A
  | Found multiplier for basic radial grid :   1
  | Found angular grid specification: user-specified.
  | Specified grid contains     5 separate shells.
  | Check grid settings after all constraints further below.
  | Found free-atom valence shell :  2 s   2.000
  | Found free-atom valence shell :  2 p   4.000
  | Found free-ion valence shell :  2 s   1.000
  | Found free-ion valence shell :  2 p   3.000
  | Found hydrogenic basis function :  2 p   1.800
  | Found hydrogenic basis function :  3 d   7.600
  | Found hydrogenic basis function :  3 s   6.400
  Species O                   : Missing cutoff potential type.
  Defaulting to exp(1/x)/(1-x)^2 type cutoff potential.
  Species O : No 'logarithmic' tag. Using default grid for free atom:
  | Default logarithmic grid data [bohr] : 0.1000E-03 0.1000E+03 0.1012E+01
  Species O : On-site basis accuracy parameter (for Gram-Schmidt orthonormalisation) not specified.
  Using default value basis_acc =  0.1000000E-03.
  Species O                   : Using default innermost maximum threshold i_radial=  2 for radial functions.
  Species O                   : Default cutoff onset for free atom density etc. : 0.35000000E+01 AA.
  Species O                   : Basic radial grid will be enhanced according to radial_multiplier =   1, to contain    36 grid points.
 
  Reading configuration options for species S                   .
  | Found nuclear charge :  16.0000
  | Found atomic mass :    32.0650000000000      amu
  | Found l_max for Hartree potential  :   4
  | Found cutoff potl. onset [A], width [A], scale factor :    3.50000    1.50000    1.00000
  | Threshold for basis-dependent cutoff potential is   0.100000E-03
  | Found data for basic radial integration grid :    44 points, outermost radius =    5.000 A
  | Found multiplier for basic radial grid :   1
  | Found angular grid specification: user-specified.
  | Specified grid contains     4 separate shells.
  | Check grid settings after all constraints further below.
  | Found free-atom valence shell :  3 s   2.000
  | Found free-atom valence shell :  3 p   4.000
  | Found free-ion valence shell :  3 s   1.000
  | Found free-ion valence shell :  3 p   3.000
  | Found ionic basis function :  3 d , default cutoff radius.
  | Found hydrogenic basis function :  2 p   1.800
  | Found ionic basis function :  3 s , default cutoff radius.
  Species S                   : Missing cutoff potential type.
  Defaulting to exp(1/x)/(1-x)^2 type cutoff potential.
  Species S : No 'logarithmic' tag. Using default grid for free atom:
  | Default logarithmic grid data [bohr] : 0.1000E-03 0.1000E+03 0.1012E+01
  | Will include ionic basis functions of  2.0-fold positive S                    ion.
  Species S : On-site basis accuracy parameter (for Gram-Schmidt orthonormalisation) not specified.
  Using default value basis_acc =  0.1000000E-03.
  Species S                   : Using default innermost maximum threshold i_radial=  2 for radial functions.
  Species S                   : Default cutoff onset for free atom density etc. : 0.35000000E+01 AA.
  Species S                   : Basic radial grid will be enhanced according to radial_multiplier =   1, to contain    44 grid points.
 
  Finished reading input file 'control.in'. Consistency checks are next.
 
  MPI_IN_PLACE appears to work with this MPI implementation.
  | Keeping use_mpi_in_place .true. (see manual).
  Target number of points in a grid batch is not set. Defaulting to  100
  Method for grid partitioning is not set. Defaulting to parallel hash+maxmin partitioning.
  Batch size limit is not set. Defaulting to    200
  By default, will store active basis functions for each batch.
  If in need of memory, prune_basis_once .false. can be used to disable this option.
  communication_type for Hartree potential was not specified.
  Defaulting to calc_hartree .
  Pulay mixer: Number of initial linear mixing iterations not set.
  Defaulting to    0 iterations.
  Work space size for distributed Hartree potential not set.
  Defaulting to   0.200000E+03 MB.
  Algorithm-dependent basis array size parameters:
  | n_max_pulay                         :       10
  Presetting      1001 iterations before the initial mixing cycle
  is restarted anyway using the sc_init_iter criterion / keyword.
  Presetting a factor      1.000 between actual scf density residual
  and density convergence criterion sc_accuracy_rho below which sc_init_iter
  takes no effect.
  No maximum number of relaxation steps, defaulting to     1000
  Default initial Hessian is Lindh matrix (thres = 15.00) plus  0.200000E+01 eV/A^2 times unity.
  No maximum energy tolerance for TRM/BFGS moves, defaulting to   0.100000E-02
  Maximum energy tolerance by which TRM/BFGS trajectory may increase over multiple steps:   0.300000E-02
  No harmonic length scale. Defaulting to   0.250000E-01 A.
  No trust radius initializer. Defaulting to   0.200000E+00 A.
  Handling of forces: Unphysical translation and rotation will be removed from forces.
  No accuracy limit for integral partition fn. given. Defaulting to  0.1000E-14.
  No threshold value for u(r) in integrations given. Defaulting to  0.1000E-05.
  No accuracy for occupation numbers given. Defaulting to  0.1000E-12.
  No threshold value for occupation numbers given. Defaulting to  0.0000E+00.
  No accuracy for fermi level given. Defaulting to  0.1000E-19.
  Maximum # of iterations to find E_F not set. Defaulting to  200.
  Preferred method for the eigenvalue solver ('KS_method') not specified in 'control.in'.
  Calling BLACS routine to test compilation state
  Since ScaLAPACK support is enabled, defaulting to ELPA (via ELSI).
  Will not use alltoall communication since running on < 1024 CPUs.
  Threshold for basis singularities not set.
  Default threshold for basis singularities:  0.1000E-04
  partition_type (choice of integration weights) for integrals was not specified.
  | Using a version of the partition function of Stratmann and coworkers ('stratmann_sparse').
  | At each grid point, the set of atoms used to build the partition table is smoothly restricted to
  | only those atoms whose free-atom density would be non-zero at that grid point.
  Partitioning for Hartree potential was not defined. Using partition_type for integrals.
  | Adjusted default value of keyword multip_moments_threshold to:       0.10000000E-11
  | This value may affect high angular momentum components of the Hartree potential in periodic systems.
  No q(lm)/r^(l+1) cutoff set for long-range Hartree potential.
  | Using default value of  0.100000E-09 .
  | Verify using the multipole_threshold keyword.
  Defaulting to new monopole extrapolation.
  Density update method: automatic selection selected.
  Geometry relaxation: A file "geometry.in.next_step" is written out by default after each step.
  | This file contains the geometry of the current relaxation step as well as
  | the current Hessian matrix needed to restart the relaxation algorithm.
  | If you do not want part or all of this information, use the keywords
  | "write_restart_geometry" or "hessian_to_restart_geometry" to switch the output off.
------------------------------------------------------------


------------------------------------------------------------
          Reading geometry description geometry.in.
------------------------------------------------------------
  Input structure read successfully.
  The structure contains       12 atoms,  and a total of         42.000 electrons.

  Input geometry:
  | No unit cell requested.
  | Atomic structure:
  |       Atom                x [A]            y [A]            z [A]
  |    1: Species C             0.00000000        1.39600000        0.00000000
  |    2: Species C             1.20900000        0.69800000        0.00000000
  |    3: Species C             1.20900000       -0.69800000        0.00000000
  |    4: Species C             0.00000000       -1.39600000        0.00000000
  |    5: Species C            -1.20900000       -0.69800000        0.00000000
  |    6: Species C            -1.20900000        0.69800000        0.00000000
  |    7: Species H             0.00000000        2.47900000        0.00000000
  |    8: Species H             2.14700000        1.24000000        0.00000000
  |    9: Species H             2.14700000       -1.24000000        0.00000000
  |   10: Species H             0.00000000       -2.47900000        0.00000000
  |   11: Species H            -2.14700000       -1.24000000        0.00000000
  |   12: Species H            -2.14700000        1.24000000        0.00000000
  |

  | The smallest distance between any two atoms is         1.08300000 AA.
  |
  | The first atom of this pair is atom number                      1 .
  | The second atom of this pair is atom number                     7 .

  Number of empty states per atom not set in control.in - providing a guess from actual geometry.
  | Total number of empty states used during s.c.f. cycle:       27
  If you use a very high smearing, use empty_states (per atom!) in control.in to increase this value.

  Structure-dependent array size parameters: 
  | Maximum number of distinct radial functions  :       29
  | Maximum number of basis functions            :      114
  | Number of Kohn-Sham states (occupied + empty):       48
------------------------------------------------------------

------------------------------------------------------------
          Preparing all fixed parts of the calculation.
------------------------------------------------------------
  Determining machine precision:
    2.225073858507201E-308
  Setting up grids for atomic and cluster calculations.

  Creating wave function, potential, and density for free atoms.

  Species: H

  List of occupied orbitals and eigenvalues:
    n    l              occ      energy [Ha]    energy [eV]
    1    0           1.0000        -0.237589        -6.4651


  Species: C

  List of occupied orbitals and eigenvalues:
    n    l              occ      energy [Ha]    energy [eV]
    1    0           2.0000       -10.038835      -273.1706
    2    0           2.0000        -0.502696       -13.6791
    2    1           2.0000        -0.191971        -5.2238


  Species: N

  List of occupied orbitals and eigenvalues:
    n    l              occ      energy [Ha]    energy [eV]
    1    0           2.0000       -14.128000      -384.4424
    2    0           2.0000        -0.681077       -18.5330
    2    1           3.0000        -0.259788        -7.0692


  Species: O

  List of occupied orbitals and eigenvalues:
    n    l              occ      energy [Ha]    energy [eV]
    1    0           2.0000       -18.898188      -514.2459
    2    0           2.0000        -0.878505       -23.9053
    2    1           4.0000        -0.331779        -9.0282


  Species: S

  List of occupied orbitals and eigenvalues:
    n    l              occ      energy [Ha]    energy [eV]
    1    0           2.0000       -88.105825     -2397.4815
    2    0           2.0000        -7.730144      -210.3479
    3    0           2.0000        -0.627748       -17.0819
    2    1           6.0000        -5.747971      -156.4103
    3    1           4.0000        -0.255786        -6.9603

  Creating fixed part of basis set: Ionic, confined, hydrogenic.
 
  H                    hydrogenic:
 
  List of hydrogenic basis orbitals: 
    n    l      effective z      eigenvalue [eV]  inner max. [A]     outer max. [A]     outer radius [A]   
    2    0         2.100000       -14.9728           0.193243           1.317208           4.583499
    2    1         3.500000       -41.6669           0.602369           0.602369           3.723403
 
 
  C                    hydrogenic:
 
  List of hydrogenic basis orbitals: 
    n    l      effective z      eigenvalue [eV]  inner max. [A]     outer max. [A]     outer radius [A]   
    2    1         1.700000        -9.7616           1.230570           1.230570           4.607917
    3    2         6.000000       -54.4224           0.792453           0.792453           3.883070
    2    0         4.900000       -81.6679           0.082559           0.562749           3.078220
 
 
  N                    hydrogenic:
 
  List of hydrogenic basis orbitals: 
    n    l      effective z      eigenvalue [eV]  inner max. [A]     outer max. [A]     outer radius [A]   
    2    1         1.800000       -10.9749           1.177451           1.177451           4.573712
    3    2         6.800000       -69.9026           0.704619           0.704619           3.538137
    3    0         5.800000       -50.8545           0.067388           1.191934           4.250239
 
 
  O                    hydrogenic:
 
  List of hydrogenic basis orbitals: 
    n    l      effective z      eigenvalue [eV]  inner max. [A]     outer max. [A]     outer radius [A]   
    2    1         1.800000       -10.9749           1.164242           1.164242           4.578029
    3    2         7.600000       -87.3180           0.624125           0.624125           3.251020
    3    0         6.400000       -61.9207           0.061167           1.081902           4.001998
 
 
  S                    ion:

  List of free ionic orbitals and eigenvalues:
    n    l      energy [Ha]    energy [eV]
    1    0       -89.127201     -2425.2745
    2    0        -8.724378      -237.4024
    3    0        -1.464668       -39.8556
    2    1        -6.744348      -183.5230
    3    1        -1.048520       -28.5317


  List of ionic basis orbitals and eigenvalues:
    n    l      energy [Ha]    energy [eV]    outer radius [A]
    3    2        -0.496135       -13.5005       4.539062
    3    0        -1.464653       -39.8552       3.642502

 
  S                    hydrogenic:
 
  List of hydrogenic basis orbitals: 
    n    l      effective z      eigenvalue [eV]  inner max. [A]     outer max. [A]     outer radius [A]   
    2    1         1.800000       -10.9749           1.168531           1.168531           4.594893
 

  Adding cutoff potential to free-atom effective potential.
  Creating atomic-like basis functions for current effective potential.

  Species H                   :

  List of atomic basis orbitals and eigenvalues:
    n    l      energy [Ha]    energy [eV]    outer radius [A]
    1    0        -0.237589        -6.4651       4.527807


  Species C                   :

  List of atomic basis orbitals and eigenvalues:
    n    l      energy [Ha]    energy [eV]    outer radius [A]
    1    0       -10.038835      -273.1706       1.934409
    2    0        -0.502696       -13.6791       4.496620
    2    1        -0.191971        -5.2238       4.551928


  Species N                   :

  List of atomic basis orbitals and eigenvalues:
    n    l      energy [Ha]    energy [eV]    outer radius [A]
    1    0       -14.128000      -384.4424       1.637919
    2    0        -0.681077       -18.5330       4.463241
    2    1        -0.259788        -7.0692       4.518138


  Species O                   :

  List of atomic basis orbitals and eigenvalues:
    n    l      energy [Ha]    energy [eV]    outer radius [A]
    1    0       -18.898188      -514.2459       1.415765
    2    0        -0.878505       -23.9053       4.413171
    2    1        -0.331779        -9.0282       4.522403


  Species S                   :

  List of atomic basis orbitals and eigenvalues:
    n    l      energy [Ha]    energy [eV]    outer radius [A]
    1    0       -88.105825     -2397.4815       0.682391
    2    0        -7.730144      -210.3479       2.317169
    3    0        -0.627748       -17.0819       4.483910
    2    1        -5.747971      -156.4103       2.555240
    3    1        -0.255786        -6.9603       4.539062

  Assembling full basis from fixed parts.
  | Species H :   atomic orbital   1 s accepted.
  | Species H :    hydro orbital   2 s accepted.
  | Species H :    hydro orbital   2 p accepted.
  | Species C :   atomic orbital   1 s accepted.
  | Species C :    hydro orbital   2 s accepted.
  | Species C :   atomic orbital   2 s accepted.
  | Species C :   atomic orbital   2 p accepted.
  | Species C :    hydro orbital   2 p accepted.
  | Species C :    hydro orbital   3 d accepted.
  | Species N :   atomic orbital   1 s accepted.
  | Species N :    hydro orbital   3 s accepted.
  | Species N :   atomic orbital   2 s accepted.
  | Species N :   atomic orbital   2 p accepted.
  | Species N :    hydro orbital   2 p accepted.
  | Species N :    hydro orbital   3 d accepted.
  | Species O :   atomic orbital   1 s accepted.
  | Species O :    hydro orbital   3 s accepted.
  | Species O :   atomic orbital   2 s accepted.
  | Species O :   atomic orbital   2 p accepted.
  | Species O :    hydro orbital   2 p accepted.
  | Species O :    hydro orbital   3 d accepted.
  | Species S :   atomic orbital   1 s accepted.
  | Species S :   atomic orbital   2 s accepted.
  | Species S :    ionic orbital   3 s accepted.
  | Species S :   atomic orbital   3 s accepted.
  | Species S :   atomic orbital   2 p accepted.
  | Species S :   atomic orbital   3 p accepted.
  | Species S :    hydro orbital   2 p accepted.
  | Species S :    ionic orbital   3 d accepted.
 
  Basis size parameters after reduction:
  | Total number of radial functions:       29
  | Total number of basis functions :      114
 
  Per-task memory consumption for arrays in subroutine allocate_ext:
  |           7.561404MB.
  Testing on-site integration grid accuracy.
  |  Species  Function  <phi|h_atom|phi> (log., in eV)  <phi|h_atom|phi> (rad., in eV)
           1        1                 -6.4663192853                 -6.4651273558
           1        2                 13.7111246313                 13.7170609718
           1        3                 25.2673269279                 25.2674696378
           2        4               -273.1705927641               -273.1705631568
           2        5                -10.7109323383                -10.7107120029
           2        6                 17.4381822266                 17.4352413244
           2        7                 -5.2255326521                 -5.2270484734
           2        8                  8.6835629259                  8.6603288385
           2        9                 27.4952418996                 27.4953360207
           3       10               -384.4424306495               -384.4423701208
           3       11                 12.5842251816                 12.5842222903
           3       12                -15.7264628251                -15.7264433455
           3       13                 -7.0696854293                 -7.0701769954
           3       14                  8.8090390882                  8.7901077751
           3       15                 35.9586762123                 35.9588528632
           4       16               -514.2458688638               -514.2457643834
           4       17                 15.1795651126                 15.1795290741
           4       18                -21.5359799773                -21.5360846186
           4       19                 -9.0283069236                 -9.0284644067
           4       20                  8.3027758564                  8.2834874195
           4       21                 45.8339351984                 45.8338762259
           5       22              -2397.4814915323              -2397.4804563634
           5       23               -210.3479335736               -210.3479265952
           5       24                -16.8079362322                -16.8079092816
           5       25                  7.5772439785                  7.5675998324
           5       26               -156.4102581151               -156.4102580951
           5       27                 -6.9617737483                 -6.9640288036
           5       28                  7.5696988470                  7.5151244831 ***
           5       29                  6.0973034823                  6.0928113248
 * Note: Onsite integrals marked "***" above are less accurate than
 * onsite_accuracy_threshold =    0.03000 eV. Usually, this is harmless.
 * When in doubt, tighten the "radial" and/or "radial_multiplier" flags to check.

  Preparing densities etc. for the partition functions (integrals / Hartree potential).

  Preparations completed.
  max(cpu_time)          :      0.448 s.
  Wall clock time (cpu1) :      0.757 s.
------------------------------------------------------------

------------------------------------------------------------
          Begin self-consistency loop: Initialization.

          Date     :  20191214, Time     :  002429.770
------------------------------------------------------------

  Initializing index lists of integration centers etc. from given atomic structure:
  | Number of centers in hartree potential         :        12
  | Number of centers in hartree multipole         :        12
  | Number of centers in electron density summation:        12
  | Number of centers in basis integrals           :        12
  | Number of centers in integrals                 :        12
  | Number of centers in hamiltonian               :        12

  Initializing relaxation algorithms.
  Finished initialization of distributed Hessian storage.
  | Global dimension:        36
  | BLACS block size:         1
  | Number of workers:       36

  * Using 56 tasks for Scalapack Eigenvalue solver.
  Detailed listing of tasks and assigned k-points:
  (for non-periodic systems, the "k-point" denotes an internal label only)
   Task     0 k-point     1 on d015
   Task     1 k-point     1 on d015
   Task     2 k-point     1 on d015
   Task     3 k-point     1 on d015
   Task     4 k-point     1 on d015
   Task     5 k-point     1 on d015
   Task     6 k-point     1 on d015
   Task     7 k-point     1 on d015
   Task     8 k-point     1 on d015
   Task     9 k-point     1 on d015
   Task    10 k-point     1 on d015
   Task    11 k-point     1 on d015
   Task    12 k-point     1 on d015
   Task    13 k-point     1 on d015
   Task    14 k-point     1 on d015
   Task    15 k-point     1 on d015
   Task    16 k-point     1 on d015
   Task    17 k-point     1 on d015
   Task    18 k-point     1 on d015
   Task    19 k-point     1 on d015
   Task    20 k-point     1 on d015
   Task    21 k-point     1 on d015
   Task    22 k-point     1 on d015
   Task    23 k-point     1 on d015
   Task    24 k-point     1 on d015
   Task    25 k-point     1 on d015
   Task    26 k-point     1 on d015
   Task    27 k-point     1 on d015
   Task    28 k-point     1 on d015
   Task    29 k-point     1 on d015
   Task    30 k-point     1 on d015
   Task    31 k-point     1 on d015
   Task    32 k-point     1 on d015
   Task    33 k-point     1 on d015
   Task    34 k-point     1 on d015
   Task    35 k-point     1 on d015
   Task    36 k-point     1 on d015
   Task    37 k-point     1 on d015
   Task    38 k-point     1 on d015
   Task    39 k-point     1 on d015
   Task    40 k-point     1 on d015
   Task    41 k-point     1 on d015
   Task    42 k-point     1 on d015
   Task    43 k-point     1 on d015
   Task    44 k-point     1 on d015
   Task    45 k-point     1 on d015
   Task    46 k-point     1 on d015
   Task    47 k-point     1 on d015
   Task    48 k-point     1 on d015
   Task    49 k-point     1 on d015
   Task    50 k-point     1 on d015
   Task    51 k-point     1 on d015
   Task    52 k-point     1 on d015
   Task    53 k-point     1 on d015
   Task    54 k-point     1 on d015
   Task    55 k-point     1 on d015
  Tasks:    56 split into      8 X      7 BLACS grid
  Calculating block size based on n_basis =          114  max_nprow =            8  max_npcol =            7
  ScaLAPACK block size set to:            8
  Allocating        0.002 MB for ovlp
  Allocating        0.002 MB for ham
  Allocating        0.002 MB for eigenvec
  Required Scalapack workspace - INTEGER:            1  REAL:             1
  Partitioning the integration grid into batches with parallel hashing+maxmin method.
  | Number of batches:      835
  | Maximal batch size:     156
  | Minimal batch size:       9
  | Average batch size:      75.420
  | Standard deviation of batch sizes:      18.035

  Integration load balanced across    56 MPI tasks.
  Work distribution over tasks is as follows:
  Task     0 has       1107 integration points.
  Task     1 has       1100 integration points.
  Task     2 has       1171 integration points.
  Task     3 has       1173 integration points.
  Task     4 has       1087 integration points.
  Task     5 has       1091 integration points.
  Task     6 has       1086 integration points.
  Task     7 has       1124 integration points.
  Task     8 has       1119 integration points.
  Task     9 has       1178 integration points.
  Task    10 has       1124 integration points.
  Task    11 has       1127 integration points.
  Task    12 has       1102 integration points.
  Task    13 has       1119 integration points.
  Task    14 has       1115 integration points.
  Task    15 has       1096 integration points.
  Task    16 has       1087 integration points.
  Task    17 has       1163 integration points.
  Task    18 has       1176 integration points.
  Task    19 has       1095 integration points.
  Task    20 has       1105 integration points.
  Task    21 has       1093 integration points.
  Task    22 has       1122 integration points.
  Task    23 has       1089 integration points.
  Task    24 has       1124 integration points.
  Task    25 has       1117 integration points.
  Task    26 has       1097 integration points.
  Task    27 has       1108 integration points.
  Task    28 has       1121 integration points.
  Task    29 has       1119 integration points.
  Task    30 has       1216 integration points.
  Task    31 has       1085 integration points.
  Task    32 has       1213 integration points.
  Task    33 has       1120 integration points.
  Task    34 has       1172 integration points.
  Task    35 has       1109 integration points.
  Task    36 has       1092 integration points.
  Task    37 has       1116 integration points.
  Task    38 has       1091 integration points.
  Task    39 has       1112 integration points.
  Task    40 has       1168 integration points.
  Task    41 has       1087 integration points.
  Task    42 has       1180 integration points.
  Task    43 has       1149 integration points.
  Task    44 has       1105 integration points.
  Task    45 has       1152 integration points.
  Task    46 has       1099 integration points.
  Task    47 has       1126 integration points.
  Task    48 has       1152 integration points.
  Task    49 has       1155 integration points.
  Task    50 has       1115 integration points.
  Task    51 has       1160 integration points.
  Task    52 has       1165 integration points.
  Task    53 has       1112 integration points.
  Task    54 has       1091 integration points.
  Task    55 has       1099 integration points.
  Initializing partition tables, free-atom densities, potentials, etc. across the integration grid (initialize_grid_storage).
  | initialize_grid_storage: Actual outermost partition radius vs. multipole_radius_free
  | (-- VB: in principle, multipole_radius_free should be larger, hence this output)
  | Species        1: Confinement radius =              4.999999999999999 AA, multipole_radius_free =              5.054417573612229 AA.
  | Species        1: outer_partition_radius set to              5.054417573612229 AA .
  | Species        2: Confinement radius =              4.999999999999999 AA, multipole_radius_free =              5.019602836301480 AA.
  | Species        2: outer_partition_radius set to              5.019602836301480 AA .
  | Species        3: Confinement radius =              4.999999999999999 AA, multipole_radius_free =              5.043624274424571 AA.
  | Species        3: outer_partition_radius set to              5.043624274424571 AA .
  | Species        4: Confinement radius =              4.999999999999999 AA, multipole_radius_free =              5.048384829883283 AA.
  | Species        4: outer_partition_radius set to              5.048384829883283 AA .
  | Species        5: Confinement radius =              4.999999999999999 AA, multipole_radius_free =              5.005414751018925 AA.
  | Species        5: outer_partition_radius set to              5.005414751018925 AA .
  | The sparse table of interatomic distances needs          1.64 kbyte instead of         1.15 kbyte of memory.
  | Using the partition_type stratmann_smoother will reduce your memory usage.
  | Net number of integration points:    62976
  | of which are non-zero points    :    54632
  Renormalizing the initial density to the exact electron count on the 3D integration grid.
  | Initial density: Formal number of electrons (from input files) :      42.0000000000
  | Integrated number of electrons on 3D grid     :      41.9999738500
  | Charge integration error                      :      -0.0000261500
  | Normalization factor for density and gradient :       1.0000006226
  Obtaining max. number of non-zero basis functions in each batch (get_n_compute_maxes).
  | Maximal number of non-zero basis functions:      114 in task     0
  | Maximal number of non-zero basis functions:      114 in task     1
  | Maximal number of non-zero basis functions:      114 in task     2
  | Maximal number of non-zero basis functions:      114 in task     3
  | Maximal number of non-zero basis functions:      113 in task     4
  | Maximal number of non-zero basis functions:      114 in task     5
  | Maximal number of non-zero basis functions:      114 in task     6
  | Maximal number of non-zero basis functions:      113 in task     7
  | Maximal number of non-zero basis functions:      114 in task     8
  | Maximal number of non-zero basis functions:      114 in task     9
  | Maximal number of non-zero basis functions:      114 in task    10
  | Maximal number of non-zero basis functions:      114 in task    11
  | Maximal number of non-zero basis functions:      113 in task    12
  | Maximal number of non-zero basis functions:      113 in task    13
  | Maximal number of non-zero basis functions:      112 in task    14
  | Maximal number of non-zero basis functions:      114 in task    15
  | Maximal number of non-zero basis functions:      114 in task    16
  | Maximal number of non-zero basis functions:      114 in task    17
  | Maximal number of non-zero basis functions:      114 in task    18
  | Maximal number of non-zero basis functions:      114 in task    19
  | Maximal number of non-zero basis functions:      114 in task    20
  | Maximal number of non-zero basis functions:      114 in task    21
  | Maximal number of non-zero basis functions:      114 in task    22
  | Maximal number of non-zero basis functions:      114 in task    23
  | Maximal number of non-zero basis functions:      113 in task    24
  | Maximal number of non-zero basis functions:      114 in task    25
  | Maximal number of non-zero basis functions:      114 in task    26
  | Maximal number of non-zero basis functions:      112 in task    27
  | Maximal number of non-zero basis functions:      114 in task    28
  | Maximal number of non-zero basis functions:      112 in task    29
  | Maximal number of non-zero basis functions:      113 in task    30
  | Maximal number of non-zero basis functions:      114 in task    31
  | Maximal number of non-zero basis functions:      114 in task    32
  | Maximal number of non-zero basis functions:      114 in task    33
  | Maximal number of non-zero basis functions:      113 in task    34
  | Maximal number of non-zero basis functions:      112 in task    35
  | Maximal number of non-zero basis functions:      114 in task    36
  | Maximal number of non-zero basis functions:      114 in task    37
  | Maximal number of non-zero basis functions:      114 in task    38
  | Maximal number of non-zero basis functions:      114 in task    39
  | Maximal number of non-zero basis functions:      114 in task    40
  | Maximal number of non-zero basis functions:      114 in task    41
  | Maximal number of non-zero basis functions:      114 in task    42
  | Maximal number of non-zero basis functions:      114 in task    43
  | Maximal number of non-zero basis functions:      112 in task    44
  | Maximal number of non-zero basis functions:      114 in task    45
  | Maximal number of non-zero basis functions:      114 in task    46
  | Maximal number of non-zero basis functions:      114 in task    47
  | Maximal number of non-zero basis functions:      114 in task    48
  | Maximal number of non-zero basis functions:      114 in task    49
  | Maximal number of non-zero basis functions:      114 in task    50
  | Maximal number of non-zero basis functions:      114 in task    51
  | Maximal number of non-zero basis functions:      114 in task    52
  | Maximal number of non-zero basis functions:      113 in task    53
  | Maximal number of non-zero basis functions:      114 in task    54
  | Maximal number of non-zero basis functions:      114 in task    55
  Selecting the method for density update.
  Loop over occupied states selected for charge density update.
  Allocating        0.042 MB for KS_eigenvector
  Integrating Hamiltonian matrix: batch-based integration.
  Time summed over all CPUs for integration: real work        1.071 s, elapsed        1.776 s => Consider using load balancing!
  Integrating overlap matrix.
  Time summed over all CPUs for integration: real work        0.351 s, elapsed        0.445 s
  Deallocating overlap matrix.

  Updating Kohn-Sham eigenvalues and eigenvectors using ELSI and the ELPA eigensolver.
  Overlap matrix is not singular
  | Lowest and highest eigenvalues :  0.1177E-02,  0.5812E+01
  Finished singularity check of overlap matrix
  | Time :     0.005 s
  Finished Cholesky decomposition
  | Time :     0.011 s
  Finished transformation to standard eigenproblem
  | Time :     0.014 s
  Starting ELPA eigensolver
  Finished solving standard eigenproblem
  | Time :     0.003 s
  Finished back-transformation of eigenvectors
  | Time :     0.001 s

  Obtaining occupation numbers and chemical potential using ELSI.
  | Chemical potential (Fermi level):    -6.26609934 eV
  Writing Kohn-Sham eigenvalues.

  State    Occupation    Eigenvalue [Ha]    Eigenvalue [eV]
      1       2.00000         -10.156516         -276.37287
      2       2.00000         -10.156331         -276.36782
      3       2.00000         -10.156303         -276.36706
      4       2.00000         -10.155932         -276.35696
      5       2.00000         -10.155905         -276.35623
      6       2.00000         -10.155719         -276.35117
      7       2.00000          -0.982233          -26.72791
      8       2.00000          -0.876323          -23.84597
      9       2.00000          -0.876280          -23.84478
     10       2.00000          -0.738572          -20.09756
     11       2.00000          -0.738564          -20.09735
     12       2.00000          -0.651737          -17.73466
     13       2.00000          -0.615049          -16.73634
     14       2.00000          -0.580252          -15.78947
     15       2.00000          -0.560235          -15.24478
     16       2.00000          -0.560169          -15.24297
     17       2.00000          -0.493372          -13.42533
     18       2.00000          -0.492031          -13.38884
     19       2.00000          -0.491923          -13.38590
     20       2.00000          -0.395026          -10.74920
     21       2.00000          -0.395009          -10.74875
     22       0.00000          -0.204089           -5.55355
     23       0.00000          -0.204071           -5.55306
     24       0.00000          -0.063006           -1.71449
     25       0.00000          -0.048596           -1.32238
     26       0.00000          -0.000383           -0.01041
     27       0.00000          -0.000333           -0.00905
     28       0.00000           0.027769            0.75562
     29       0.00000           0.027861            0.75812
     30       0.00000           0.066572            1.81152
     31       0.00000           0.112829            3.07024
     32       0.00000           0.112879            3.07159
     33       0.00000           0.119798            3.25988
     34       0.00000           0.119839            3.26099
     35       0.00000           0.182503            4.96615
     36       0.00000           0.204097            5.55375
     37       0.00000           0.209147            5.69117
     38       0.00000           0.257873            7.01708
     39       0.00000           0.257890            7.01754
     40       0.00000           0.271152            7.37841
     41       0.00000           0.273979            7.45534
     42       0.00000           0.273984            7.45548
     43       0.00000           0.292120            7.94898
     44       0.00000           0.292278            7.95330
     45       0.00000           0.341163            9.28352
     46       0.00000           0.342014            9.30667
     47       0.00000           0.431363           11.73798
     48       0.00000           0.431475           11.74102

  Highest occupied state (VBM) at    -10.74874914 eV
  | Occupation number:      2.00000000

  Lowest unoccupied state (CBM) at    -5.55354763 eV
  | Occupation number:      0.00000000

  Overall HOMO-LUMO gap:      5.19520151 eV.
  Calculating total energy contributions from superposition of free atom densities.

  Total energy components:
  | Sum of eigenvalues            :        -140.76695879 Ha       -3830.46384044 eV
  | XC energy correction          :         -33.70432110 Ha        -917.14124084 eV
  | XC potential correction       :          43.28763075 Ha        1177.91636443 eV
  | Free-atom electrostatic energy:        -101.11363356 Ha       -2751.44196109 eV
  | Hartree energy correction     :           0.00000000 Ha           0.00000000 eV
  | vdW energy correction         :           0.00000000 Ha           0.00000000 eV
  | Entropy correction            :          -0.00000000 Ha          -0.00000000 eV
  | ---------------------------
  | Total energy                  :        -232.29728270 Ha       -6321.13067794 eV
  | Total energy, T -> 0          :        -232.29728270 Ha       -6321.13067794 eV  <-- do not rely on this value for anything but (periodic) metals
  | Electronic free energy        :        -232.29728270 Ha       -6321.13067794 eV

  Derived energy quantities:
  | Kinetic energy                :         229.23219512 Ha        6237.72540121 eV
  | Electrostatic energy          :        -427.82515672 Ha      -11641.71483830 eV
  | Energy correction for multipole
  | error in Hartree potential    :           0.00000000 Ha           0.00000000 eV
  | Sum of eigenvalues per atom                           :        -319.20532004 eV
  | Total energy (T->0) per atom                          :        -526.76088983 eV  <-- do not rely on this value for anything but (periodic) metals
  | Electronic free energy per atom                       :        -526.76088983 eV
  Initialize hartree_potential_storage
  Max. number of atoms included in rho_multipole:           12

  End scf initialization - timings             :  max(cpu_time)    wall_clock(cpu1)
  | Time for scf. initialization               :        0.213 s           0.216 s
  | Boundary condition initialization          :        0.001 s           0.001 s
  | Relaxation initialization                  :        0.011 s           0.012 s
  | Integration                                :        0.053 s           0.053 s
  | Solution of K.-S. eqns.                    :        0.056 s           0.057 s
  | Grid partitioning                          :        0.044 s           0.044 s
  | Preloading free-atom quantities on grid    :        0.007 s           0.007 s
  | Free-atom superposition energy             :        0.004 s           0.003 s
  | Total energy evaluation                    :        0.000 s           0.013 s

  Partial memory accounting:
  | Current value for overall tracked memory usage:
  |   Minimum:        0.108 MB (on task 50)
  |   Maximum:        0.111 MB (on task  0)
  |   Average:        0.110 MB
  | Peak value for overall tracked memory usage:
  |   Minimum:        0.656 MB (on task 44 after allocating wave)
  |   Maximum:        0.670 MB (on task  0 after allocating wave)
  |   Average:        0.667 MB
  | Largest tracked array allocation so far:
  |   Minimum:        0.133 MB (H_times_psi on task 44)
  |   Maximum:        0.228 MB (all_coords on task 26)
  |   Average:        0.194 MB
  Note:  These values currently only include a subset of arrays which are explicitly tracked.
  The "true" memory usage will be greater.
------------------------------------------------------------

------------------------------------------------------------
          Begin self-consistency iteration #    1

  Date     :  20191214, Time     :  002429.987
------------------------------------------------------------
  Evaluating new KS density.
  Integration grid: deviation in total charge (<rho> - N_e) =   7.105427E-15
  Pulay mixing of updated and previous charge densities.

  Evaluating partitioned Hartree potential by multipole expansion.
  | Analytical far-field extrapolation by fixed multipoles:
  | Hartree multipole sum: apparent total charge =  -0.236883E-03
  Summing up the Hartree potential.
  Time summed over all CPUs for potential: real work        0.910 s, elapsed        1.550 s
  | RMS charge density error from multipole expansion :   0.110014E-01

  Integrating Hamiltonian matrix: batch-based integration.
  Time summed over all CPUs for integration: real work        0.806 s, elapsed        1.540 s => Consider using load balancing!

  Updating Kohn-Sham eigenvalues and eigenvectors using ELSI and the ELPA eigensolver.
  Finished transformation to standard eigenproblem
  | Time :     0.000 s
  Starting ELPA eigensolver
  Finished solving standard eigenproblem
  | Time :     0.003 s
  Finished back-transformation of eigenvectors
  | Time :     0.000 s

  Obtaining occupation numbers and chemical potential using ELSI.
  | Chemical potential (Fermi level):    -4.31139487 eV
  Writing Kohn-Sham eigenvalues.

  State    Occupation    Eigenvalue [Ha]    Eigenvalue [eV]
      1       2.00000          -9.986665         -271.75097
      2       2.00000          -9.986470         -271.74569
      3       2.00000          -9.986457         -271.74532
      4       2.00000          -9.986068         -271.73474
      5       2.00000          -9.986055         -271.73437
      6       2.00000          -9.985861         -271.72909
      7       2.00000          -0.863595          -23.49962
      8       2.00000          -0.764461          -20.80205
      9       2.00000          -0.764430          -20.80120
     10       2.00000          -0.634240          -17.25855
     11       2.00000          -0.634234          -17.25840
     12       2.00000          -0.559389          -15.22175
     13       2.00000          -0.500261          -13.61278
     14       2.00000          -0.494319          -13.45109
     15       2.00000          -0.463002          -12.59894
     16       2.00000          -0.462974          -12.59816
     17       2.00000          -0.397236          -10.80935
     18       2.00000          -0.393921          -10.71915
     19       2.00000          -0.393834          -10.71677
     20       2.00000          -0.299036           -8.13719
     21       2.00000          -0.299035           -8.13715
     22       0.00000          -0.110076           -2.99531
     23       0.00000          -0.110075           -2.99530
     24       0.00000           0.000004            0.00012
     25       0.00000           0.033524            0.91222
     26       0.00000           0.049032            1.33424
     27       0.00000           0.049065            1.33512
     28       0.00000           0.082765            2.25214
     29       0.00000           0.082877            2.25520
     30       0.00000           0.115786            3.15071
     31       0.00000           0.191456            5.20980
     32       0.00000           0.191537            5.21199
     33       0.00000           0.198037            5.38885
     34       0.00000           0.198142            5.39173
     35       0.00000           0.241246            6.56464
     36       0.00000           0.260930            7.10027
     37       0.00000           0.277157            7.54183
     38       0.00000           0.315263            8.57875
     39       0.00000           0.315269            8.57891
     40       0.00000           0.341053            9.28054
     41       0.00000           0.350678            9.54244
     42       0.00000           0.350695            9.54290
     43       0.00000           0.367168            9.99116
     44       0.00000           0.367276            9.99407
     45       0.00000           0.450143           12.24901
     46       0.00000           0.452214           12.30537
     47       0.00000           0.496652           13.51457
     48       0.00000           0.496774           13.51791

  Highest occupied state (VBM) at     -8.13715340 eV
  | Occupation number:      2.00000000

  Lowest unoccupied state (CBM) at    -2.99531306 eV
  | Occupation number:      0.00000000

  Overall HOMO-LUMO gap:      5.14184034 eV.

  Total energy components:
  | Sum of eigenvalues            :        -135.68308679 Ha       -3692.12464477 eV
  | XC energy correction          :         -34.09493369 Ha        -927.77035024 eV
  | XC potential correction       :          43.79505271 Ha        1191.72401843 eV
  | Free-atom electrostatic energy:        -101.11363356 Ha       -2751.44196109 eV
  | Hartree energy correction     :          -4.99002342 Ha        -135.78544605 eV
  | vdW energy correction         :           0.00000000 Ha           0.00000000 eV
  | Entropy correction            :          -0.00000000 Ha          -0.00000000 eV
  | ---------------------------
  | Total energy                  :        -232.08662476 Ha       -6315.39838372 eV
  | Total energy, T -> 0          :        -232.08662476 Ha       -6315.39838372 eV  <-- do not rely on this value for anything but (periodic) metals
  | Electronic free energy        :        -232.08662476 Ha       -6315.39838372 eV

  Derived energy quantities:
  | Kinetic energy                :         231.11927036 Ha        6289.07533111 eV
  | Electrostatic energy          :        -429.11096143 Ha      -11676.70336459 eV
  | Energy correction for multipole
  | error in Hartree potential    :           0.02908865 Ha           0.79154236 eV
[...]
  | Energy correction for multipole
  | error in Hartree potential    :           0.06982750 Ha           1.90010283 eV
  | Sum of eigenvalues per atom                           :        -299.34333479 eV
  | Total energy (T->0) per atom                          :        -526.15266076 eV  <-- do not rely on this value for anything but (periodic) metals
  | Electronic free energy per atom                       :        -526.15266076 eV

  atomic forces [eV/Ang]:
  -----------------------
  atom #    1
   Hellmann-Feynman              : -0.727005E-13 -0.133554E+01  0.102136E-11
   Ionic forces                  :  0.000000E+00  0.000000E+00  0.000000E+00
   Multipole                     : -0.645384E-13  0.605340E+00 -0.127382E-12
   Pulay + GGA                   : -0.183045E-12  0.732884E+00  0.313995E-12
   Van der Waals                 :  0.796207E-16 -0.222255E-02  0.706378E-16
   ----------------------------------------------------------------
   Total forces(   1)            : -0.320204E-12  0.456859E-03  0.120804E-11
  atom #    2
   Hellmann-Feynman              : -0.115712E+01 -0.663499E+00  0.569255E-12
   Ionic forces                  :  0.000000E+00  0.000000E+00  0.000000E+00
   Multipole                     :  0.522928E+00  0.301038E+00 -0.847429E-14
   Pulay + GGA                   :  0.636542E+00  0.364798E+00 -0.133591E-11
   Van der Waals                 : -0.191925E-02 -0.110880E-02  0.519086E-16
   ----------------------------------------------------------------
   Total forces(   2)            :  0.431761E-03  0.122765E-02 -0.775072E-12
  atom #    3
   Hellmann-Feynman              : -0.115712E+01  0.663499E+00  0.118227E-11
   Ionic forces                  :  0.000000E+00  0.000000E+00  0.000000E+00
   Multipole                     :  0.522928E+00 -0.301038E+00 -0.230590E-13
   Pulay + GGA                   :  0.636542E+00 -0.364798E+00  0.256905E-12
   Van der Waals                 : -0.191925E-02  0.110880E-02  0.549949E-16
   ----------------------------------------------------------------
   Total forces(   3)            :  0.431761E-03 -0.122765E-02  0.141617E-11
  atom #    4
   Hellmann-Feynman              :  0.154999E-11  0.133554E+01 -0.191673E-12
   Ionic forces                  :  0.000000E+00  0.000000E+00  0.000000E+00
   Multipole                     :  0.682849E-13 -0.605340E+00  0.238172E-13
   Pulay + GGA                   :  0.259046E-12 -0.732884E+00  0.216942E-12
   Van der Waals                 :  0.205585E-16  0.222255E-02  0.229179E-15
   ----------------------------------------------------------------
   Total forces(   4)            :  0.187734E-11 -0.456859E-03  0.493150E-13
  atom #    5
   Hellmann-Feynman              :  0.115712E+01  0.663499E+00  0.575512E-12
   Ionic forces                  :  0.000000E+00  0.000000E+00  0.000000E+00
   Multipole                     : -0.522928E+00 -0.301038E+00 -0.104814E-13
   Pulay + GGA                   : -0.636542E+00 -0.364798E+00 -0.545209E-12
   Van der Waals                 :  0.191925E-02  0.110880E-02  0.129206E-15
   ----------------------------------------------------------------
   Total forces(   5)            : -0.431761E-03 -0.122765E-02  0.199510E-13
  atom #    6
   Hellmann-Feynman              :  0.115712E+01 -0.663499E+00 -0.542024E-12
   Ionic forces                  :  0.000000E+00  0.000000E+00  0.000000E+00
   Multipole                     : -0.522928E+00  0.301038E+00  0.780304E-13
   Pulay + GGA                   : -0.636542E+00  0.364798E+00 -0.502392E-12
   Van der Waals                 :  0.191925E-02 -0.110880E-02  0.235353E-15
   ----------------------------------------------------------------
   Total forces(   6)            : -0.431761E-03  0.122765E-02 -0.966150E-12
  atom #    7
   Hellmann-Feynman              :  0.161786E-12 -0.325389E-01 -0.153754E-12
   Ionic forces                  :  0.000000E+00  0.000000E+00  0.000000E+00
   Multipole                     : -0.715855E-14  0.150823E+00  0.241517E-13
   Pulay + GGA                   :  0.365175E-13 -0.111775E+00 -0.677943E-13
   Van der Waals                 : -0.271791E-16 -0.488837E-02 -0.256636E-15
   ----------------------------------------------------------------
   Total forces(   7)            :  0.191118E-12  0.162103E-02 -0.197654E-12
  atom #    8
   Hellmann-Feynman              : -0.278835E-01 -0.167726E-01 -0.336758E-12
   Ionic forces                  :  0.000000E+00  0.000000E+00  0.000000E+00
   Multipole                     :  0.130248E+00  0.752947E-01  0.326204E-13
   Pulay + GGA                   : -0.966570E-01 -0.557225E-01  0.102695E-13
   Van der Waals                 : -0.423292E-02 -0.244318E-02  0.240008E-15
   ----------------------------------------------------------------
   Total forces(   8)            :  0.147471E-02  0.356376E-03 -0.293628E-12
  atom #    9
   Hellmann-Feynman              : -0.278835E-01  0.167726E-01 -0.282139E-13
   Ionic forces                  :  0.000000E+00  0.000000E+00  0.000000E+00
   Multipole                     :  0.130248E+00 -0.752947E-01  0.618428E-14
   Pulay + GGA                   : -0.966570E-01  0.557225E-01  0.967853E-14
   Van der Waals                 : -0.423292E-02  0.244318E-02 -0.385083E-15
   ----------------------------------------------------------------
   Total forces(   9)            :  0.147471E-02 -0.356376E-03 -0.127362E-13
  atom #   10
   Hellmann-Feynman              :  0.283541E-12  0.325389E-01 -0.848893E-13
   Ionic forces                  :  0.000000E+00  0.000000E+00  0.000000E+00
   Multipole                     : -0.139672E-13 -0.150823E+00  0.125665E-13
   Pulay + GGA                   : -0.800597E-14  0.111775E+00 -0.633342E-14
   Van der Waals                 : -0.113987E-15  0.488837E-02 -0.944873E-16
   ----------------------------------------------------------------
   Total forces(  10)            :  0.261454E-12 -0.162103E-02 -0.787507E-13
  atom #   11
   Hellmann-Feynman              :  0.278835E-01  0.167726E-01 -0.609733E-13
   Ionic forces                  :  0.000000E+00  0.000000E+00  0.000000E+00
   Multipole                     : -0.130248E+00 -0.752947E-01  0.115671E-13
   Pulay + GGA                   :  0.966570E-01  0.557225E-01 -0.189557E-14
   Van der Waals                 :  0.423292E-02  0.244318E-02 -0.413388E-16
   ----------------------------------------------------------------
   Total forces(  11)            : -0.147471E-02 -0.356376E-03 -0.513431E-13
  atom #   12
   Hellmann-Feynman              :  0.278835E-01 -0.167726E-01  0.116921E-12
   Ionic forces                  :  0.000000E+00  0.000000E+00  0.000000E+00
   Multipole                     : -0.130248E+00  0.752947E-01 -0.104479E-13
   Pulay + GGA                   :  0.966570E-01 -0.557225E-01 -0.417024E-14
   Van der Waals                 :  0.423292E-02 -0.244318E-02 -0.233742E-15
   ----------------------------------------------------------------
   Total forces(  12)            : -0.147471E-02  0.356376E-03  0.102069E-12

  Timings for VdW correction (Tkatchenko-Scheffler 2009 or later):
  | CPU time:        0.017 s, Wall clock time:        0.018 s.
  Removing unitary transformations (pure translations, rotations) from forces on atoms.
  Atomic forces before filtering:
  | Net force on center of mass :   0.248418E-11 -0.306058E-11  0.420215E-12 eV/A
  | Net torque on center of mass:  -0.105616E-11 -0.115264E-11  0.344971E-12 eV
  Atomic forces after filtering:
  | Net force on center of mass :   0.348449E-18  0.784011E-18 -0.324519E-27 eV/A
  | Net torque on center of mass:  -0.521246E-27 -0.257592E-27  0.110635E-17 eV

  Energy and forces in a compact form:
  | Total energy uncorrected      :         -0.631383192915130E+04 eV
  | Total energy corrected        :         -0.631383192915130E+04 eV  <-- do not rely on this value for anything but (periodic) metals
  | Electronic free energy        :         -0.631383192915130E+04 eV
  Total atomic forces (unitary forces cleaned) [eV/Ang]:
  |    1         -0.517360471730878E-12          0.456859025333674E-03          0.123338910864564E-11
  |    2          0.431760966634988E-03          0.122765483216631E-02         -0.836964940919714E-12
  |    3          0.431760966405367E-03         -0.122765483536258E-02          0.129391180383588E-11
  |    4          0.166047029075966E-11         -0.456859024743861E-03         -0.460684884526624E-13
  |    5         -0.431760966404447E-03         -0.122765483522105E-02          0.118080612684767E-13
  |    6         -0.431760966919656E-03          0.122765483482578E-02         -0.913925708057260E-12
  |    7          0.165513917251891E-14          0.162102933210030E-02         -0.125197403449778E-12
  |    8          0.147471338603470E-02          0.356375849376842E-03         -0.376479997912746E-12
  |    9          0.147471338543002E-02         -0.356375848432415E-03         -0.203076118752536E-12
  |   10          0.368870925958113E-13         -0.162102933082687E-02         -0.221242751065223E-12
  |   11         -0.147471338599404E-02         -0.356375848712177E-03         -0.385264998653569E-13
  |   12         -0.147471338636858E-02          0.356375849496060E-03          0.222372934725275E-12

  ------------------------------------ 
  Start decomposition of the XC Energy 
  ------------------------------------ 
  X and C from original XC functional choice 
  Hartree-Fock Energy :          0.000000000 Ha              0.000000000 eV
  X Energy            :        -33.075348572 Ha           -900.026027462 eV
  C Energy            :         -1.369123114 Ha            -37.255735473 eV
  Total XC Energy     :        -34.444471686 Ha           -937.281762936 eV
  ------------------------------------ 
  LDA X and C from self-consistent density 
  X Energy LDA        :        -29.918790422 Ha           -814.131709944 eV
  C Energy LDA        :         -2.666665856 Ha            -72.563669936 eV
  ------------------------------------ 
  End decomposition of the XC Energy 
  ------------------------------------ 

------------------------------------------------------------
  Relaxation / MD: End force evaluation.       :  max(cpu_time)    wall_clock(cpu1)
  | Time for this force evaluation             :        0.933 s           0.933 s

------------------------------------------------------------
  Geometry optimization: Attempting to predict improved coordinates.

  Removing unitary transformations (pure translations, rotations) from forces on atoms.
  Atomic forces before filtering:
  | Net force on center of mass :   0.348449E-18  0.784011E-18 -0.324519E-27 eV/A
  | Net torque on center of mass:  -0.521246E-27 -0.257592E-27  0.110635E-17 eV
  Atomic forces after filtering:
  | Net force on center of mass :   0.348449E-18  0.784011E-18 -0.121695E-27 eV/A
  | Net torque on center of mass:  -0.220722E-27 -0.858640E-28  0.147513E-17 eV
  Net remaining forces (excluding translations, rotations) in present geometry:
  || Forces on atoms   || =   0.162103E-02 eV/A.
  Maximum force component is  0.162103E-02 eV/A.
  Present geometry is converged.

------------------------------------------------------------
  Final atomic structure:
                         x [A]             y [A]             z [A]
            atom         0.00000000        1.39854637       -0.00000000  C
            atom         1.21130592        0.69929469       -0.00000000  C
            atom         1.21130592       -0.69929469       -0.00000000  C
            atom         0.00000000       -1.39854637       -0.00000000  C
            atom        -1.21130592       -0.69929469        0.00000000  C
            atom        -1.21130592        0.69929469       -0.00000000  C
            atom        -0.00000000        2.48995489        0.00000000  H
            atom         2.15641846        1.24513351        0.00000000  H
            atom         2.15641846       -1.24513351       -0.00000000  H
            atom        -0.00000000       -2.48995489        0.00000000  H
            atom        -2.15641846       -1.24513351        0.00000000  H
            atom        -2.15641846        1.24513351       -0.00000000  H
------------------------------------------------------------
  |------------------------------------------------------
  | Final ELSI Output
  |------------------------------------------------------
  |
  | Physical Properties
  |   Number of electrons       :        0.42000000E+02
  |   Number of spins           :                     1
  |   Number of k-points        :                     1
  |   Number of states          :                    48
  |
  | Matrix Properties
  |   Matrix format             :           BLACS_DENSE
  |   Number of basis functions :                   114
  |   Matrix sparsity           :        0.41489689E+00
  |
  | Computational Details
  |   Parallel mode             :            MULTI_PROC
  |   Number of MPI tasks       :                    56
  |   Solver requested          :                  ELPA
  |   Number of ELSI calls      :                    26
  |
  |------------------------------------------------------
  | ELSI Project (c)  elsi-interchange.org
  |------------------------------------------------------

------------------------------------------------------------------------------
  Final output of selected total energy values:

  The following output summarizes some interesting total energy values
  at the end of a run (AFTER all relaxation, molecular dynamics, etc.).

  | Total energy of the DFT / Hartree-Fock s.c.f. calculation      :          -6313.831929151 eV
  | Final zero-broadening corrected energy (caution - metals only) :          -6313.831929151 eV
  | For reference only, the value of 1 Hartree used in FHI-aims is :             27.211384500 eV

  Before relying on these values, please be sure to understand exactly which
  total energy value is referred to by a given number. Different objects may
  all carry the same name 'total energy'. Definitions:

  Total energy of the DFT / Hartree-Fock s.c.f. calculation:
  | Note that this energy does not include ANY quantities calculated after the
  | s.c.f. cycle, in particular not ANY RPA, MP2, etc. many-body perturbation terms.

  Final zero-broadening corrected energy:
  | For metallic systems only, a broadening of the occupation numbers at the Fermi
  | level can be extrapolated back to zero broadening by an electron-gas inspired
  | formula. For all systems that are not real metals, this value can be
  | meaningless and should be avoided.

------------------------------------------------------------------------------
  Methods described in the following list of references were used in this FHI-aims run.
  If you publish the results, please make sure to cite these reference if they apply.
  FHI-aims is an academic code, and for our developers (often, Ph.D. students
  and postdocs), scientific credit in the community is essential.
  Thank you for helping us!

  For any use of FHI-aims, please cite:

    Volker Blum, Ralf Gehrke, Felix Hanke, Paula Havu, Ville Havu,
    Xinguo Ren, Karsten Reuter, and Matthias Scheffler
    'Ab initio molecular simulations with numeric atom-centered orbitals'
    Computer Physics Communications 180, 2175-2196 (2009)
    http://dx.doi.org/10.1016/j.cpc.2009.06.022


  The scalable eigensolver library ELPA was used in your run.
  ELPA is essential especially for large systems on hundreds or thousands of CPUs.
  For ELPA, please cite:

    Andreas Marek, Volker Blum, Rainer Johanni, Ville Havu, Bruno Lang,
    Thomas Auckenthaler, Alexander Heinecke, Hans-Joachim Bungartz, and Hermann Lederer,
    'The ELPA Library - Scalable Parallel Eigenvalue Solutions
    for Electronic Structure Theory and Computational Science'
    The Journal of Physics: Condensed Matter 26, 213201 (2014).
    http://dx.doi.org/10.1088/0953-8984/26/21/213201


  The ELSI infrastructure was used in your run to solve the Kohn-Sham electronic structure.
  Please check out http://elsi-interchange.org to learn more.
  If scalability is important for your project, please acknowledge ELSI by citing:

    V. W-z. Yu, F. Corsetti, A. Garcia, W. P. Huhn, M. Jacquelin, W. Jia,
    B. Lange, L. Lin, J. Lu, W. Mi, A. Seifitokaldani, A. Vazquez-Mayagoitia,
    C. Yang, H. Yang, and V. Blum
    'ELSI: A unified software interface for Kohn-Sham electronic structure solvers'
    Computer Physics Communications 222, 267-285 (2018).
    http://dx.doi.org/10.1016/j.cpc.2017.09.007


  For the real-space grid partitioning and parallelization used in this calculation, please cite:

    Ville Havu, Volker Blum, Paula Havu, and Matthias Scheffler,
    'Efficient O(N) integration for all-electron electronic structure calculation'
    'using numerically tabulated basis functions'
    Journal of Computational Physics 228, 8367-8379 (2009).
    http://dx.doi.org/10.1016/j.jcp.2009.08.008

  Of course, there are many other important community references, e.g., those cited in the
  above references. Our list is limited to references that describe implementations in the
  FHI-aims code. The reason is purely practical (length of this list) - please credit others as well.

------------------------------------------------------------
          Leaving FHI-aims.
          Date     :  20191214, Time     :  002433.112

          Computational steps:
          | Number of self-consistency cycles          :           25
          | Number of SCF (re)initializations          :            3
          | Number of relaxation steps                 :            2

          Detailed time accounting                     :  max(cpu_time)    wall_clock(cpu1)
          | Total time                                 :        4.157 s           4.167 s
          | Preparation time                           :        0.448 s           0.757 s
          | Boundary condition initalization           :        0.001 s           0.001 s
          | Grid partitioning                          :        0.103 s           0.103 s
          | Preloading free-atom quantities on grid    :        0.039 s           0.038 s
          | Free-atom superposition energy             :        0.022 s           0.022 s
          | Total time for integrations                :        0.798 s           0.796 s
          | Total time for solution of K.-S. equations :        0.333 s           0.340 s
          | Total time for EV reorthonormalization     :        0.018 s           0.019 s
          | Total time for density & force components  :        0.673 s           0.685 s
          | Total time for mixing                      :        0.012 s           0.053 s
          | Total time for Hartree multipole update    :        0.069 s           0.066 s
          | Total time for Hartree multipole sum       :        0.984 s           0.986 s
          | Total time for total energy evaluation     :        0.009 s           0.051 s
          | Total time for vdW correction              :        0.044 s           0.044 s

          Partial memory accounting:
          | Residual value for overall tracked memory usage across tasks:     0.000000 MB (should be 0.000000 MB)
          | Peak values for overall tracked memory usage:
          |   Minimum:        1.583 MB (on task 44 after allocating hessian_basis_wave)
          |   Maximum:        1.605 MB (on task  0 after allocating hessian_basis_wave)
          |   Average:        1.600 MB
          | Largest tracked array allocation:
          |   Minimum:        0.804 MB (hessian_basis_wave on task 14)
          |   Maximum:        0.814 MB (hessian_basis_wave on task  0)
          |   Average:        0.812 MB
          Note:  These values currently only include a subset of arrays which are explicitly tracked.
          The "true" memory usage will be greater.

          Have a nice day.
------------------------------------------------------------
