  MPI-parallelism will be employed.
------------------------------------------------------------
          Invoking FHI-aims ...
          Version 150620
          Git rev. (modified): 4c09a96 Merge branch master into reuter/rotated_re[...]
          Compiled on 2015/06/30 at 16:35:33 on host cypress1.

          When using FHI-aims, please cite the following reference:

          Volker Blum, Ralf Gehrke, Felix Hanke, Paula Havu,
          Ville Havu, Xinguo Ren, Karsten Reuter, and Matthias Scheffler,
          'Ab Initio Molecular Simulations with Numeric Atom-Centered Orbitals: FHI-aims',
          Computer Physics Communications 180, 2175-2196 (2009)

          For any questions about FHI-aims, please visit the aimsclub website
          with its forums and wiki. Contributions to both the forums and the
          wiki are warmly encouraged - they are for you, and everyone is welcome there.

------------------------------------------------------------

  Date     :  20151018, Time     :  184807.478
  Time zero on CPU 1             :   0.429920000000000E-01  s.
  Internal wall clock time zero  :           214426087.478  s.

  Using       20 parallel tasks.
  Task        0 on host cypress01-069 reporting.
  Task        1 on host cypress01-069 reporting.
  Task        2 on host cypress01-069 reporting.
  Task        3 on host cypress01-069 reporting.
  Task        4 on host cypress01-069 reporting.
  Task        5 on host cypress01-069 reporting.
  Task        6 on host cypress01-069 reporting.
  Task        7 on host cypress01-069 reporting.
  Task        8 on host cypress01-069 reporting.
  Task        9 on host cypress01-069 reporting.
  Task       10 on host cypress01-069 reporting.
  Task       11 on host cypress01-069 reporting.
  Task       12 on host cypress01-069 reporting.
  Task       13 on host cypress01-069 reporting.
  Task       14 on host cypress01-069 reporting.
  Task       15 on host cypress01-069 reporting.
  Task       16 on host cypress01-069 reporting.
  Task       17 on host cypress01-069 reporting.
  Task       18 on host cypress01-069 reporting.
  Task       19 on host cypress01-069 reporting.

  Performing system and environment tests:
  | Environment variable OMP_NUM_THREADS correctly set to 1.
  | Stacksize not measured: no C compiler
  | Checking for scalapack...
  | Testing pdtran()...
  | All pdtran() tests passed.

  Obtaining array dimensions for all initial allocations:
  
  -----------------------------------------------------------------------
  Parsing control.in (first pass over file, find array dimensions only).
  The contents of control.in will be repeated verbatim below
  unless switched off by setting 'verbatim_writeout .false.' .
  in the first line of control.in .
  -----------------------------------------------------------------------
  
    #########################################################################################
    #
    #   input file control.in light for relaxation
    #
    #########################################################################################
    #
    #  Physical model
    #
      xc                 pbe
      spin               none
      relativistic       none
      override_relativity .true.
      charge             0.
    #
    #  SCF convergence
    #
      occupation_type    gaussian 0.005
      mixer              pulay
        n_max_pulay        10
        charge_mix_param   0.6
      sc_accuracy_rho    1E-5
      sc_accuracy_eev    1E-3
      sc_accuracy_etot   1E-6
    #  sc_accuracy_forces 1E-4 #uncomment for relaxation
      sc_iter_limit      500
    #  restart restart_file
    #
    #  Eigenvalue solution
    #
    KS_method	     scalapack
    rotated_restart		.true.
    restart_write_only	h_kv
    restart_read_only	restart.new
    empty_states       6
    basis_threshold    1.e-5
    output h_s_matrices
  
    #relax_geometry trm 1d0
    #
    #  For periodic boundary conditions
    #
     #   k_grid 3 3 3
    #
    #  Relaxation
    #
    # relax_geometry trm 1.e-2 #uncomment for internal relaxation
    # relax_unit_cell full #uncomment for unit cell relaxation
    # relax_unit_cell fixed_angles #uncomment for unit cell relaxation with fixed angles
     vdw_correction_hirshfeld
    # many_body_dispersion
    # restart_relaxations .true.
    # hessian_to_restart_geometry .false.
    # harmonic_length_scale 0.01 #uncomment in case of relaxation errors
    # energy_tolerance 5.e-4  #uncomment in case of relaxation errors
    # init_hess diag
  
    ################################################################################
    #
    #  FHI-aims code project
    #  VB, Fritz-Haber Institut, 2009
    #
    #  Suggested "light" defaults for H atom (to be pasted into control.in file)
    #  Be sure to double-check any results obtained with these settings for post-processing,
    #  e.g., with the "tight" defaults and larger basis sets.
    #
    ################################################################################
      species        H
    #     global species definitions
        nucleus             1
        mass                1.00794
    #
        l_hartree           4
    #
        cut_pot             3.5  1.5  1.0
        basis_dep_cutoff    1e-4
    #
        radial_base         24 5.0
        radial_multiplier   1
        angular_grids       specified
          division   0.2421   50
          division   0.3822  110
          division   0.4799  194
          division   0.5341  302
    #      division   0.5626  434
    #      division   0.5922  590
    #      division   0.6542  770
    #      division   0.6868 1202
    #      outer_grid  770
          outer_grid  302
    ################################################################################
    #
    #  Definition of "minimal" basis
    #
    ################################################################################
    #     valence basis states
        valence      1  s   1.
    #     ion occupancy
        ion_occ      1  s   0.5
    ################################################################################
    #
    #  Suggested additional basis functions. For production calculations,
    #  uncomment them one after another (the most important basis functions are
    #  listed first).
    #
    #  Basis constructed for dimers: 0.5 A, 0.7 A, 1.0 A, 1.5 A, 2.5 A
    #
    ################################################################################
    #  "First tier" - improvements: -1014.90 meV to -62.69 meV
         hydro 2 s 2.1
         hydro 2 p 3.5
    #  "Second tier" - improvements: -12.89 meV to -1.83 meV
    #     hydro 1 s 0.85
    #     hydro 2 p 3.7
    #     hydro 2 s 1.2
    #     hydro 3 d 7
    #  "Third tier" - improvements: -0.25 meV to -0.12 meV
    #     hydro 4 f 11.2
    #     hydro 3 p 4.8
    #     hydro 4 d 9
    #     hydro 3 s 3.2
    ################################################################################
    #
    #  FHI-aims code project
    #  VB, Fritz-Haber Institut, 2009
    #
    #  Suggested "light" defaults for C atom (to be pasted into control.in file)
    #  Be sure to double-check any results obtained with these settings for post-processing,
    #  e.g., with the "tight" defaults and larger basis sets.
    #
    ################################################################################
      species        C
    #     global species definitions
        nucleus             6
        mass                12.0107
    #
        l_hartree           4
    #
        cut_pot             3.5  1.5  1.0
        basis_dep_cutoff    1e-4
    #
        radial_base         34 5.0
        radial_multiplier   1
        angular_grids specified
          division   0.3326   50
          division   0.5710  110
          division   0.7727  194
          division   0.8772  302
    #      division   0.9334  434
    #      division   0.9625  590
    #      division   0.9924  770
    #      division   1.0230  974
    #      division   1.4589 1202
    #     outer_grid  974
         outer_grid 302
    ################################################################################
    #
    #  Definition of "minimal" basis
    #
    ################################################################################
    #     valence basis states
        valence      2  s   2.
        valence      2  p   2.
    #     ion occupancy
        ion_occ      2  s   1.
        ion_occ      2  p   1.
    ################################################################################
    #
    #  Suggested additional basis functions. For production calculations,
    #  uncomment them one after another (the most important basis functions are
    #  listed first).
    #
    #  Constructed for dimers: 1.0 A, 1.25 A, 1.5 A, 2.0 A, 3.0 A
    #
    ################################################################################
    #  "First tier" - improvements: -1214.57 meV to -155.61 meV
         hydro 2 p 1.7
         hydro 3 d 6
         hydro 2 s 4.9
    #  "Second tier" - improvements: -67.75 meV to -5.23 meV
    #     hydro 4 f 9.8
    #     hydro 3 p 5.2
    #     hydro 3 s 4.3
    #     hydro 5 g 14.4
    #     hydro 3 d 6.2
    #  "Third tier" - improvements: -2.43 meV to -0.60 meV
    #     hydro 2 p 5.6
    #     hydro 2 s 1.4
    #     hydro 3 d 4.9
    #     hydro 4 f 11.2
    #  "Fourth tier" - improvements: -0.39 meV to -0.18 meV
    #     hydro 2 p 2.1
    #     hydro 5 g 16.4
    #     hydro 4 d 13.2
    #     hydro 3 s 13.6
    #     hydro 4 f 17.6
    #  Further basis functions - improvements: -0.08 meV and below
    #     hydro 3 s 2
    #     hydro 3 p 6
    #     hydro 4 d 20
    ################################################################################
    #
    #  FHI-aims code project
    #  VB, Fritz-Haber Institut, 2009
    #
    #  Suggested "light" defaults for N atom (to be pasted into control.in file)
    #  Be sure to double-check any results obtained with these settings for post-processing,
    #  e.g., with the "tight" defaults and larger basis sets.
    #
    ################################################################################
      species        N
    #     global species definitions
        nucleus             7
        mass                14.0067
    #
        l_hartree           4
    #
        cut_pot             3.5  1.5  1.0
        basis_dep_cutoff    1e-4
    #
        radial_base         35 5.0
        radial_multiplier   1
        angular_grids       specified
          division   0.2599   50
          division   0.4601  110
          division   0.5885  194
          division   0.6503  302
    #      division   0.6939  434
    #      division   0.7396  590
    #      division   0.7632  770
    #      division   0.8122  974
    #      division   1.1604 1202
    #      outer_grid  974
          outer_grid  302
    ################################################################################
    #
    #  Definition of "minimal" basis
    #
    ################################################################################
    #     valence basis states
        valence      2  s   2.
        valence      2  p   3.
    #     ion occupancy
        ion_occ      2  s   1.
        ion_occ      2  p   2.
    ################################################################################
    #
    #  Suggested additional basis functions. For production calculations,
    #  uncomment them one after another (the most important basis functions are
    #  listed first).
    #
    #  Constructed for dimers: 1.0 A, 1.1 A, 1.5 A, 2.0 A, 3.0 A
    #
    ################################################################################
    #  "First tier" - improvements: -1193.42 meV to -220.60 meV
         hydro 2 p 1.8
         hydro 3 d 6.8
         hydro 3 s 5.8
    #  "Second tier" - improvements: -80.21 meV to -6.86 meV
    #     hydro 4 f 10.8
    #     hydro 3 p 5.8
    #     hydro 1 s 0.8
    #     hydro 5 g 16
    #     hydro 3 d 4.9
    #  "Third tier" - improvements: -4.29 meV to -0.53 meV
    #     hydro 3 s 16
    #     ionic 2 p auto
    #     hydro 3 d 6.6
    #     hydro 4 f 11.6
    #  "Fourth tier" - improvements: -0.75 meV to -0.25 meV
    #     hydro 2 p 4.5
    #     hydro 2 s 2.4
    #     hydro 5 g 14.4
    #     hydro 4 d 14.4
    #     hydro 4 f 16.8
    # Further basis functions - -0.21 meV and below
    #     hydro 3 p 14.8
    #     hydro 3 s 4.4
    #     hydro 3 d 19.6
    #     hydro 5 g 12.8
    ################################################################################
    #
    #  FHI-aims code project
    #  VB, Fritz-Haber Institut, 2009
    #
    #  Suggested "light" defaults for O atom (to be pasted into control.in file)
    #  Be sure to double-check any results obtained with these settings for post-processing,
    #  e.g., with the "tight" defaults and larger basis sets.
    #
    ################################################################################
      species        O
    #     global species definitions
        nucleus             8
        mass                15.9994
    #
        l_hartree           4
    #
        cut_pot             3.5  1.5  1.0
        basis_dep_cutoff    1e-4
    #
        radial_base         36 5.0
        radial_multiplier   1
         angular_grids specified
          division   0.2659   50
          division   0.4451  110
          division   0.6052  194
          division   0.7543  302
    #      division   0.8014  434
    #      division   0.8507  590
    #      division   0.8762  770
    #      division   0.9023  974
    #      division   1.2339 1202
    #      outer_grid 974
          outer_grid 302
    ################################################################################
    #
    #  Definition of "minimal" basis
    #
    ################################################################################
    #     valence basis states
        valence      2  s   2.
        valence      2  p   4.
    #     ion occupancy
        ion_occ      2  s   1.
        ion_occ      2  p   3.
    ################################################################################
    #
    #  Suggested additional basis functions. For production calculations,
    #  uncomment them one after another (the most important basis functions are
    #  listed first).
    #
    #  Constructed for dimers: 1.0 A, 1.208 A, 1.5 A, 2.0 A, 3.0 A
    #
    ################################################################################
    #  "First tier" - improvements: -699.05 meV to -159.38 meV
         hydro 2 p 1.8
         hydro 3 d 7.6
         hydro 3 s 6.4
    #  "Second tier" - improvements: -49.91 meV to -5.39 meV
    #     hydro 4 f 11.6
    #     hydro 3 p 6.2
    #     hydro 3 d 5.6
    #     hydro 5 g 17.6
    #     hydro 1 s 0.75
    #  "Third tier" - improvements: -2.83 meV to -0.50 meV
    #     ionic 2 p auto
    #     hydro 4 f 10.8
    #     hydro 4 d 4.7
    #     hydro 2 s 6.8
    #  "Fourth tier" - improvements: -0.40 meV to -0.12 meV
    #     hydro 3 p 5
    #     hydro 3 s 3.3
    #     hydro 5 g 15.6
    #     hydro 4 f 17.6
    #     hydro 4 d 14
    # Further basis functions - -0.08 meV and below
    #     hydro 3 s 2.1
    #     hydro 4 d 11.6
    #     hydro 3 p 16
    #     hydro 2 s 17.2
  
    ################################################################################
    #
    #  FHI-aims code project
    #  VB, Fritz-Haber Institut, 2009
    #
    #  Suggested "light" defaults for S atom (to be pasted into control.in file)
    #  Be sure to double-check any results obtained with these settings for post-processing,
    #  e.g., with the "tight" defaults and larger basis sets.
    #
    ################################################################################
      species        S
    #     global species definitions
        nucleus             16
        mass                32.065
    #
        l_hartree           4
    #
        cut_pot             3.5          1.5  1.0
        basis_dep_cutoff    1e-4
    #
        radial_base         44 5.0
        radial_multiplier   1
        angular_grids       specified
          division   0.4665  110
          division   0.5810  194
          division   0.7139  302
    #      division   0.8274  434
    #      division   0.9105  590
    #      division   1.0975  770
    #      division   1.2028  974
    #      outer_grid  974
          outer_grid  302
    ################################################################################
    #
    #  Definition of "minimal" basis
    #
    ################################################################################
    #     valence basis states
        valence      3  s   2.
        valence      3  p   4.
    #     ion occupancy
        ion_occ      3  s   1.
        ion_occ      3  p   3.
    ################################################################################
    #
    #  Suggested additional basis functions. For production calculations,
    #  uncomment them one after another (the most important basis functions are
    #  listed first).
    #
    #  Constructed for dimers: 1.6 A, 1.9 A, 2.5 A, 3.25 A, 4.0 A
    #
    ################################################################################
    #  "First tier" - improvements: -652.81 meV to -45.53 meV
         ionic 3 d auto
         hydro 2 p 1.8
    #     hydro 4 f 7
         ionic 3 s auto
    #  "Second tier" - improvements: -30.20 meV to -1.74 meV
    #     hydro 4 d 6.2
    #     hydro 5 g 10.8
    #     hydro 4 p 4.9
    #     hydro 5 f 10
    #     hydro 1 s 0.8
    #  "Third tier" - improvements: -1.04 meV to -0.20 meV
    #     hydro 3 d 3.9
    #     hydro 3 d 2.7
    #     hydro 5 g 12
    #     hydro 4 p 10.4
    #     hydro 5 f 12.4
    #     hydro 2 s 1.9
    #  "Fourth tier" - improvements: -0.35 meV to -0.06 meV
    #     hydro 4 d 10.4
    #     hydro 4 p 7.2
    #     hydro 4 d 10
    #     hydro 5 g 19.2
    #     hydro 4 s 12
  
  
  
  -----------------------------------------------------------------------
  Completed first pass over input file control.in .
  -----------------------------------------------------------------------
  
  
  -----------------------------------------------------------------------
  Parsing geometry.in (first pass over file, find array dimensions only).
  The contents of geometry.in will be repeated verbatim below
  unless switched off by setting 'verbatim_writeout .false.' .
  in the first line of geometry.in .
  -----------------------------------------------------------------------
  
  atom 6.08491 11.69259 1.00371 S
  atom 7.45569 12.39835 3.21929 C
  atom 7.85338 9.88236 2.26756 C
  atom 8.53940 10.93340 3.35905 S
  atom 7.09864 10.21529 1.14808 C
  atom 6.48474 12.67002 2.26824 C
  atom 5.49638 13.70296 2.58234 C
  atom 8.01675 13.36017 4.06583 C
  atom 5.07416 14.80364 1.86456 N
  atom 8.48156 13.96522 4.94702 N
  atom 6.59358 9.00435 0.56883 C
  atom 5.51873 8.98072 -0.31683 C
  atom 4.66111 9.09509 -1.09564 N
  atom 7.91529 8.56598 2.60674 N
  atom 7.19653 7.66677 1.47803 S
  
  -----------------------------------------------------------------------
  Completed first pass over input file geometry.in .
  -----------------------------------------------------------------------
  

  Basic array size parameters:
  | Number of species                 :        5
  | Number of atoms                   :       15
  | Max. basis fn. angular momentum   :        2
  | Max. atomic/ionic basis occupied n:        3
  | Max. number of basis fn. types    :        3
  | Max. radial fns per species/type  :        5
  | Max. logarithmic grid size        :     1357
  | Max. radial integration grid size :       44
  | Max. angular integration grid size:      302
  | Max. angular grid division number :        8
  | Radial grid for Hartree potential :     1357
  | Number of spin channels           :        1

------------------------------------------------------------
          Reading file control.in.
------------------------------------------------------------
  XC: Using PBE gradient-corrected functionals.
  Spin treatment: No spin polarisation.
  Non-relativistic treatment of kinetic energy.
  override_relativity: Explicitly overriding any built-in relativity checks.
  If you use this flag, you should really know what you are doing.
  Charge =   0.000000E+00: Neutral system requested explicitly.
  Occupation type: Gaussian broadening, width =   0.500000E-02 eV.
  Using pulay charge density mixing.
  Pulay mixing - number of memorized iterations:   10
  Charge density mixing - mixing parameter:     0.6000
  Convergence accuracy of self-consistent charge density:  0.1000E-04
  Convergence accuracy of sum of eigenvalues:  0.1000E-02
  Convergence accuracy of total energy:  0.1000E-05
  Maximum number of s.-c. iterations  :   500
  Kohn-Sham eigenvalues and eigenfunctions calculated by the ELPA eigensolver library.
  Requested restart from rotated KS_eigenvector (restart_rotated .true.)
  Writing restart information to file h_kv
  * WARNING: Requested restart file does not exist: restart.new
  * Ignoring input
  Number of empty states per atom:        6
  Threshold for basis singularities:  0.1000E-04
  Hamilton and overlap matrices will be written out in a_ij-format.
 
  Reading configuration options for species H                   .
  | Found nuclear charge :   1.0000
  | Found atomic mass :    1.00794000000000      amu
  | Found l_max for Hartree potential  :   4
  | Found cutoff potl. onset [A], width [A], scale factor :    3.50000    1.50000    1.00000
  | Threshold for basis-dependent cutoff potential is   0.100000E-03
  | Found data for basic radial integration grid :    24 points, outermost radius =    5.000 A
  | Found multiplier for basic radial grid :   1
  | Found angular grid specification: user-specified.
  | Specified grid contains     5 separate shells.
  | Check grid settings after all constraints further below.
  | Found free-atom valence shell :  1 s   1.000
  | Found free-ion valence shell :  1 s   0.500
  | Found hydrogenic basis function :  2 s   2.100
  | Found hydrogenic basis function :  2 p   3.500
  Species H                   : Missing cutoff potential type.
  Defaulting to exp(1/x)/(1-x)^2 type cutoff potential.
  Species H : No 'logarithmic' tag. Using default grid for free atom:
  | Default logarithmic grid data [bohr] : 0.1000E-03 0.1000E+03 0.1012E+01
  Species H : On-site basis accuracy parameter (for Gram-Schmidt orthonormalisation) not specified.
  Using default value basis_acc =  0.1000000E-03.
  Species H                   : Using default innermost maximum threshold i_radial=  2 for radial functions.
  Species H                   : Default cutoff onset for free atom density etc. : 0.35000000E+01 AA.
  Species H                   : Basic radial grid will be enhanced according to radial_multiplier =   1, to contain    24 grid points.
 
  Reading configuration options for species C                   .
  | Found nuclear charge :   6.0000
  | Found atomic mass :    12.0107000000000      amu
  | Found l_max for Hartree potential  :   4
  | Found cutoff potl. onset [A], width [A], scale factor :    3.50000    1.50000    1.00000
  | Threshold for basis-dependent cutoff potential is   0.100000E-03
  | Found data for basic radial integration grid :    34 points, outermost radius =    5.000 A
  | Found multiplier for basic radial grid :   1
  | Found angular grid specification: user-specified.
  | Specified grid contains     5 separate shells.
  | Check grid settings after all constraints further below.
  | Found free-atom valence shell :  2 s   2.000
  | Found free-atom valence shell :  2 p   2.000
  | Found free-ion valence shell :  2 s   1.000
  | Found free-ion valence shell :  2 p   1.000
  | Found hydrogenic basis function :  2 p   1.700
  | Found hydrogenic basis function :  3 d   6.000
  | Found hydrogenic basis function :  2 s   4.900
  Species C                   : Missing cutoff potential type.
  Defaulting to exp(1/x)/(1-x)^2 type cutoff potential.
  Species C : No 'logarithmic' tag. Using default grid for free atom:
  | Default logarithmic grid data [bohr] : 0.1000E-03 0.1000E+03 0.1012E+01
  Species C : On-site basis accuracy parameter (for Gram-Schmidt orthonormalisation) not specified.
  Using default value basis_acc =  0.1000000E-03.
  Species C                   : Using default innermost maximum threshold i_radial=  2 for radial functions.
  Species C                   : Default cutoff onset for free atom density etc. : 0.35000000E+01 AA.
  Species C                   : Basic radial grid will be enhanced according to radial_multiplier =   1, to contain    34 grid points.
 
  Reading configuration options for species N                   .
  | Found nuclear charge :   7.0000
  | Found atomic mass :    14.0067000000000      amu
  | Found l_max for Hartree potential  :   4
  | Found cutoff potl. onset [A], width [A], scale factor :    3.50000    1.50000    1.00000
  | Threshold for basis-dependent cutoff potential is   0.100000E-03
  | Found data for basic radial integration grid :    35 points, outermost radius =    5.000 A
  | Found multiplier for basic radial grid :   1
  | Found angular grid specification: user-specified.
  | Specified grid contains     5 separate shells.
  | Check grid settings after all constraints further below.
  | Found free-atom valence shell :  2 s   2.000
  | Found free-atom valence shell :  2 p   3.000
  | Found free-ion valence shell :  2 s   1.000
  | Found free-ion valence shell :  2 p   2.000
  | Found hydrogenic basis function :  2 p   1.800
  | Found hydrogenic basis function :  3 d   6.800
  | Found hydrogenic basis function :  3 s   5.800
  Species N                   : Missing cutoff potential type.
  Defaulting to exp(1/x)/(1-x)^2 type cutoff potential.
  Species N : No 'logarithmic' tag. Using default grid for free atom:
  | Default logarithmic grid data [bohr] : 0.1000E-03 0.1000E+03 0.1012E+01
  Species N : On-site basis accuracy parameter (for Gram-Schmidt orthonormalisation) not specified.
  Using default value basis_acc =  0.1000000E-03.
  Species N                   : Using default innermost maximum threshold i_radial=  2 for radial functions.
  Species N                   : Default cutoff onset for free atom density etc. : 0.35000000E+01 AA.
  Species N                   : Basic radial grid will be enhanced according to radial_multiplier =   1, to contain    35 grid points.
 
  Reading configuration options for species O                   .
  | Found nuclear charge :   8.0000
  | Found atomic mass :    15.9994000000000      amu
  | Found l_max for Hartree potential  :   4
  | Found cutoff potl. onset [A], width [A], scale factor :    3.50000    1.50000    1.00000
  | Threshold for basis-dependent cutoff potential is   0.100000E-03
  | Found data for basic radial integration grid :    36 points, outermost radius =    5.000 A
  | Found multiplier for basic radial grid :   1
  | Found angular grid specification: user-specified.
  | Specified grid contains     5 separate shells.
  | Check grid settings after all constraints further below.
  | Found free-atom valence shell :  2 s   2.000
  | Found free-atom valence shell :  2 p   4.000
  | Found free-ion valence shell :  2 s   1.000
  | Found free-ion valence shell :  2 p   3.000
  | Found hydrogenic basis function :  2 p   1.800
  | Found hydrogenic basis function :  3 d   7.600
  | Found hydrogenic basis function :  3 s   6.400
  Species O                   : Missing cutoff potential type.
  Defaulting to exp(1/x)/(1-x)^2 type cutoff potential.
  Species O : No 'logarithmic' tag. Using default grid for free atom:
  | Default logarithmic grid data [bohr] : 0.1000E-03 0.1000E+03 0.1012E+01
  Species O : On-site basis accuracy parameter (for Gram-Schmidt orthonormalisation) not specified.
  Using default value basis_acc =  0.1000000E-03.
  Species O                   : Using default innermost maximum threshold i_radial=  2 for radial functions.
  Species O                   : Default cutoff onset for free atom density etc. : 0.35000000E+01 AA.
  Species O                   : Basic radial grid will be enhanced according to radial_multiplier =   1, to contain    36 grid points.
 
  Reading configuration options for species S                   .
  | Found nuclear charge :  16.0000
  | Found atomic mass :    32.0650000000000      amu
  | Found l_max for Hartree potential  :   4
  | Found cutoff potl. onset [A], width [A], scale factor :    3.50000    1.50000    1.00000
  | Threshold for basis-dependent cutoff potential is   0.100000E-03
  | Found data for basic radial integration grid :    44 points, outermost radius =    5.000 A
  | Found multiplier for basic radial grid :   1
  | Found angular grid specification: user-specified.
  | Specified grid contains     4 separate shells.
  | Check grid settings after all constraints further below.
  | Found free-atom valence shell :  3 s   2.000
  | Found free-atom valence shell :  3 p   4.000
  | Found free-ion valence shell :  3 s   1.000
  | Found free-ion valence shell :  3 p   3.000
  | Found ionic basis function :  3 d , default cutoff radius.
  | Found hydrogenic basis function :  2 p   1.800
  | Found ionic basis function :  3 s , default cutoff radius.
  Species S                   : Missing cutoff potential type.
  Defaulting to exp(1/x)/(1-x)^2 type cutoff potential.
  Species S : No 'logarithmic' tag. Using default grid for free atom:
  | Default logarithmic grid data [bohr] : 0.1000E-03 0.1000E+03 0.1012E+01
  | Will include ionic basis functions of  2.0-fold positive S                    ion.
  Species S : On-site basis accuracy parameter (for Gram-Schmidt orthonormalisation) not specified.
  Using default value basis_acc =  0.1000000E-03.
  Species S                   : Using default innermost maximum threshold i_radial=  2 for radial functions.
  Species S                   : Default cutoff onset for free atom density etc. : 0.35000000E+01 AA.
  Species S                   : Basic radial grid will be enhanced according to radial_multiplier =   1, to contain    44 grid points.
 
  Finished reading input file 'control.in'. Consistency checks are next.
 
  Target number of points in a grid batch is not set. Defaulting to  100
  Method for grid partitioning is not set. Defaulting to parallel hash+maxmin partitioning.
  Batch size limit is not set. Defaulting to    200
  By default, will store active basis functions for each batch.
  If in need of memory, prune_basis_once .false. can be used to disable this option.
  communication_type for Hartree potential was not specified.
  Defaulting to calc_hartree .
  Pulay mixer: Number of initial linear mixing iterations not set.
  Defaulting to    0 iterations.
  Work space size for distributed Hartree potential not set.
  Defaulting to   0.200000E+03 MB.
  Algorithm-dependent basis array size parameters:
  | n_max_pulay                         :       10
  Calculation of forces was not defined in control.in. No forces will be calculated.
  Geometry relaxation not requested: no relaxation will be performed.
  No accuracy limit for integral partition fn. given. Defaulting to  0.1000E-14.
  No threshold value for u(r) in integrations given. Defaulting to  0.1000E-05.
  No accuracy for occupation numbers given. Defaulting to  0.1000E-07.
  No threshold value for occupation numbers given. Defaulting to  0.0000E+00.
  No accuracy for fermi level given. Defaulting to  0.1000E-19.
  Maximum # of iterations to find E_F not set. Defaulting to  200.
  Will not use alltoall communication since running on < 1024 CPUs.
  partition_type (choice of integration weights) for integrals was not specified.
  | Using a version of the partition function of Stratmann and coworkers ('stratmann_smoother').
  | At each grid point, the set of atoms used to build the partition table is smoothly restricted to
  | only those atoms whose free-atom density would be non-zero at that grid point.
  Partitioning for Hartree potential was not defined. Using partition_type for integrals.
  | Adjusted default value of keyword multip_moments_threshold to:       0.10000000E-11
  | This value may affect high angular momentum components of the Hartree potential in periodic systems.
  No q(lm)/r^(l+1) cutoff set for long-range Hartree potential.
  | Using default value of  0.100000E-09 .
  | Verify using the multipole_threshold keyword.
  Defaulting to new monopole extrapolation.
  Density update method: automatic selection selected.
------------------------------------------------------------


------------------------------------------------------------
          Reading geometry description geometry.in.
------------------------------------------------------------
 * Attention. You are trying to treat an element beyond Ne (Z=10) without
 * accounting for relativity. This will lead to slight deviations from the true
 * physics of the system. Check your results if in doubt.
  Input structure read successfully.
  The structure contains       15 atoms,  and a total of        124.000 electrons.

  Input geometry:
  | No unit cell requested.
  | Atomic structure:
  |       Atom                x [A]            y [A]            z [A]
  |    1: Species S              6.084910        11.692590         1.003710
  |    2: Species C              7.455690        12.398350         3.219290
  |    3: Species C              7.853380         9.882360         2.267560
  |    4: Species S              8.539400        10.933400         3.359050
  |    5: Species C              7.098640        10.215290         1.148080
  |    6: Species C              6.484740        12.670020         2.268240
  |    7: Species C              5.496380        13.702960         2.582340
  |    8: Species C              8.016750        13.360170         4.065830
  |    9: Species N              5.074160        14.803640         1.864560
  |   10: Species N              8.481560        13.965220         4.947020
  |   11: Species C              6.593580         9.004350         0.568830
  |   12: Species C              5.518730         8.980720        -0.316830
  |   13: Species N              4.661110         9.095090        -1.095640
  |   14: Species N              7.915290         8.565980         2.606740
  |   15: Species S              7.196530         7.666770         1.478030
  |

  | The smallest distance between any two atoms is         1.16410377 AA.
  |
  | The first atom of this pair is atom number                     12 .
  | The second atom of this pair is atom number                    13 .

  Structure-dependent array size parameters: 
  | Maximum number of distinct radial functions  :       29
  | Maximum number of basis functions            :      222
  | Number of Kohn-Sham states (occupied + empty):      107
------------------------------------------------------------

------------------------------------------------------------
          Preparing all fixed parts of the calculation.
------------------------------------------------------------
  Determining machine precision:
    2.225073858507201E-308
  Setting up grids for atomic and cluster calculations.

  Creating wave function, potential, and density for free atoms.

  Species: H

  List of occupied orbitals and eigenvalues:
    n    l              occ      energy [Ha]    energy [eV]
    1    0           1.0000        -0.237589        -6.4651


  Species: C

  List of occupied orbitals and eigenvalues:
    n    l              occ      energy [Ha]    energy [eV]
    1    0           2.0000       -10.038835      -273.1706
    2    0           2.0000        -0.502696       -13.6791
    2    1           2.0000        -0.191971        -5.2238


  Species: N

  List of occupied orbitals and eigenvalues:
    n    l              occ      energy [Ha]    energy [eV]
    1    0           2.0000       -14.128000      -384.4424
    2    0           2.0000        -0.681077       -18.5330
    2    1           3.0000        -0.259788        -7.0692


  Species: O

  List of occupied orbitals and eigenvalues:
    n    l              occ      energy [Ha]    energy [eV]
    1    0           2.0000       -18.898188      -514.2459
    2    0           2.0000        -0.878505       -23.9053
    2    1           4.0000        -0.331779        -9.0282


  Species: S

  List of occupied orbitals and eigenvalues:
    n    l              occ      energy [Ha]    energy [eV]
    1    0           2.0000       -88.105825     -2397.4815
    2    0           2.0000        -7.730144      -210.3479
    3    0           2.0000        -0.627748       -17.0819
    2    1           6.0000        -5.747971      -156.4103
    3    1           4.0000        -0.255786        -6.9603

  Creating fixed part of basis set: Ionic, confined, hydrogenic.
 
  H                    hydrogenic:
 
  List of hydrogenic basis orbitals: 
    n    l      effective z      eigenvalue [eV]  inner max. [A]     outer max. [A]     outer radius [A]   
    2    0         2.100000       -14.9728           0.193243           1.317208           4.583499
    2    1         3.500000       -41.6669           0.602369           0.602369           3.723403
 
 
  C                    hydrogenic:
 
  List of hydrogenic basis orbitals: 
    n    l      effective z      eigenvalue [eV]  inner max. [A]     outer max. [A]     outer radius [A]   
    2    1         1.700000        -9.7616           1.230570           1.230570           4.607917
    3    2         6.000000       -54.4224           0.792453           0.792453           3.883070
    2    0         4.900000       -81.6679           0.082559           0.562749           3.078220
 
 
  N                    hydrogenic:
 
  List of hydrogenic basis orbitals: 
    n    l      effective z      eigenvalue [eV]  inner max. [A]     outer max. [A]     outer radius [A]   
    2    1         1.800000       -10.9749           1.177451           1.177451           4.573712
    3    2         6.800000       -69.9026           0.704619           0.704619           3.538137
    3    0         5.800000       -50.8545           0.067388           1.191934           4.250239
 
 
  O                    hydrogenic:
 
  List of hydrogenic basis orbitals: 
    n    l      effective z      eigenvalue [eV]  inner max. [A]     outer max. [A]     outer radius [A]   
    2    1         1.800000       -10.9749           1.164242           1.164242           4.578029
    3    2         7.600000       -87.3180           0.624125           0.624125           3.251020
    3    0         6.400000       -61.9207           0.061167           1.081902           4.001998
 
 
  S                    ion:

  List of free ionic orbitals and eigenvalues:
    n    l      energy [Ha]    energy [eV]
    1    0       -89.127201     -2425.2745
    2    0        -8.724378      -237.4024
    3    0        -1.464668       -39.8556
    2    1        -6.744348      -183.5230
    3    1        -1.048520       -28.5317


  List of ionic basis orbitals and eigenvalues:
    n    l      energy [Ha]    energy [eV]    outer radius [A]
    3    2        -0.496135       -13.5005       4.539062
    3    0        -1.464653       -39.8552       3.642502

 
  S                    hydrogenic:
 
  List of hydrogenic basis orbitals: 
    n    l      effective z      eigenvalue [eV]  inner max. [A]     outer max. [A]     outer radius [A]   
    2    1         1.800000       -10.9749           1.168531           1.168531           4.594893
 

  Adding cutoff potential to free-atom effective potential.
  Creating atomic-like basis functions for current effective potential.

  Species H                   :

  List of atomic basis orbitals and eigenvalues:
    n    l      energy [Ha]    energy [eV]    outer radius [A]
    1    0        -0.237589        -6.4651       4.527807


  Species C                   :

  List of atomic basis orbitals and eigenvalues:
    n    l      energy [Ha]    energy [eV]    outer radius [A]
    1    0       -10.038835      -273.1706       1.934409
    2    0        -0.502696       -13.6791       4.496620
    2    1        -0.191971        -5.2238       4.551928


  Species N                   :

  List of atomic basis orbitals and eigenvalues:
    n    l      energy [Ha]    energy [eV]    outer radius [A]
    1    0       -14.128000      -384.4424       1.637919
    2    0        -0.681077       -18.5330       4.463241
    2    1        -0.259788        -7.0692       4.518138


  Species O                   :

  List of atomic basis orbitals and eigenvalues:
    n    l      energy [Ha]    energy [eV]    outer radius [A]
    1    0       -18.898188      -514.2459       1.415765
    2    0        -0.878505       -23.9053       4.413171
    2    1        -0.331779        -9.0282       4.522403


  Species S                   :

  List of atomic basis orbitals and eigenvalues:
    n    l      energy [Ha]    energy [eV]    outer radius [A]
    1    0       -88.105825     -2397.4815       0.682391
    2    0        -7.730144      -210.3479       2.317169
    3    0        -0.627748       -17.0819       4.483910
    2    1        -5.747971      -156.4103       2.555240
    3    1        -0.255786        -6.9603       4.539062

  Assembling full basis from fixed parts.
  | Species H :   atomic orbital   1 s accepted.
  | Species H :    hydro orbital   2 s accepted.
  | Species H :    hydro orbital   2 p accepted.
  | Species C :   atomic orbital   1 s accepted.
  | Species C :    hydro orbital   2 s accepted.
  | Species C :   atomic orbital   2 s accepted.
  | Species C :   atomic orbital   2 p accepted.
  | Species C :    hydro orbital   2 p accepted.
  | Species C :    hydro orbital   3 d accepted.
  | Species N :   atomic orbital   1 s accepted.
  | Species N :    hydro orbital   3 s accepted.
  | Species N :   atomic orbital   2 s accepted.
  | Species N :   atomic orbital   2 p accepted.
  | Species N :    hydro orbital   2 p accepted.
  | Species N :    hydro orbital   3 d accepted.
  | Species O :   atomic orbital   1 s accepted.
  | Species O :    hydro orbital   3 s accepted.
  | Species O :   atomic orbital   2 s accepted.
  | Species O :   atomic orbital   2 p accepted.
  | Species O :    hydro orbital   2 p accepted.
  | Species O :    hydro orbital   3 d accepted.
  | Species S :   atomic orbital   1 s accepted.
  | Species S :   atomic orbital   2 s accepted.
  | Species S :    ionic orbital   3 s accepted.
  | Species S :   atomic orbital   3 s accepted.
  | Species S :   atomic orbital   2 p accepted.
  | Species S :   atomic orbital   3 p accepted.
  | Species S :    hydro orbital   2 p accepted.
  | Species S :    ionic orbital   3 d accepted.
 
  Basis size parameters after reduction:
  | Total number of radial functions:       29
  | Total number of basis functions :      222
 
  Testing on-site integration grid accuracy.
  |  Species  Function  <phi|h_atom|phi> (log., in eV)  <phi|h_atom|phi> (rad., in eV)
           1        1                 -6.4663192853                 -6.4651273558
           1        2                 13.7111246313                 13.7170609718
           1        3                 25.2673269279                 25.2674696378
           2        4               -273.1705927641               -273.1705631568
           2        5                -10.7109323383                -10.7107120029
           2        6                 17.4381822266                 17.4352413244
           2        7                 -5.2255326521                 -5.2270484734
           2        8                  8.6835629259                  8.6603288385
           2        9                 27.4952418996                 27.4953360207
           3       10               -384.4424306495               -384.4423701208
           3       11                 12.5842251816                 12.5842222903
           3       12                -15.7264628251                -15.7264433455
           3       13                 -7.0696854293                 -7.0701769954
           3       14                  8.8090390882                  8.7901077751
           3       15                 35.9586762123                 35.9588528632
           4       16               -514.2458688638               -514.2457643834
           4       17                 15.1795651126                 15.1795290741
           4       18                -21.5359799773                -21.5360846186
           4       19                 -9.0283069236                 -9.0284644067
           4       20                  8.3027758564                  8.2834874195
           4       21                 45.8339351984                 45.8338762259
           5       22              -2397.4814915323              -2397.4804563634
           5       23               -210.3479335736               -210.3479265952
           5       24                -16.8079362322                -16.8079092816
           5       25                  7.5772439785                  7.5675998324
           5       26               -156.4102581151               -156.4102580951
           5       27                 -6.9617737483                 -6.9640288036
           5       28                  7.5696988470                  7.5151244831 ***
           5       29                  6.0973034823                  6.0928113248
 * Note: Onsite integrals marked "***" above are less accurate than
 * onsite_accuracy_threshold =    0.03000 eV. Usually, this is harmless.
 * When in doubt, tighten the "radial" and/or "radial_multiplier" flags to check.

  Preparing densities etc. for the partition functions (integrals / Hartree potential).

  Preparations completed.
  max(cpu_time)          :      0.306 s.
  Wall clock time (cpu1) :      0.603 s.
------------------------------------------------------------

------------------------------------------------------------
          Begin self-consistency loop: Initialization.

          Date     :  20151018, Time     :  184808.429
------------------------------------------------------------

  Initializing index lists of integration centers etc. from given atomic structure:
  | Number of centers in hartree potential         :        15
  | Number of centers in hartree multipole         :        15
  | Number of centers in electron density summation:        15
  | Number of centers in basis integrals           :        15
  | Number of centers in integrals                 :        15
  | Number of centers in hamiltonian               :        15
  Using modified Scalapack Eigenvalue solver (ELPA)
  * Using 20 tasks for Scalapack Eigenvalue solver.
  Detailed listing of tasks and assigned k-points:
  (for non-periodic systems, the "k-point" denotes an internal label only)
   Task     0 k-point     1 on cypress01-069
   Task     1 k-point     1 on cypress01-069
   Task     2 k-point     1 on cypress01-069
   Task     3 k-point     1 on cypress01-069
   Task     4 k-point     1 on cypress01-069
   Task     5 k-point     1 on cypress01-069
   Task     6 k-point     1 on cypress01-069
   Task     7 k-point     1 on cypress01-069
   Task     8 k-point     1 on cypress01-069
   Task     9 k-point     1 on cypress01-069
   Task    10 k-point     1 on cypress01-069
   Task    11 k-point     1 on cypress01-069
   Task    12 k-point     1 on cypress01-069
   Task    13 k-point     1 on cypress01-069
   Task    14 k-point     1 on cypress01-069
   Task    15 k-point     1 on cypress01-069
   Task    16 k-point     1 on cypress01-069
   Task    17 k-point     1 on cypress01-069
   Task    18 k-point     1 on cypress01-069
   Task    19 k-point     1 on cypress01-069
  Tasks:    20 split into      5 X      4 BLACS grid
  Calculating blocksize based on n_basis =          222 max_nprow =            5 max_npcol =            4
  Scalapack blocksize set to:           16
  Required Scalapack workspace - INTEGER:            1 REAL:             1
  Partitioning the integration grid into batches with parallel hashing+maxmin method.
  | Number of batches:      978
  | Maximal batch size:     200
  | Minimal batch size:      24
  | Average batch size:     100.033
  | Standard deviation of batch sizes:      29.656

  Integration load balanced across    20 MPI tasks.
  Work distribution over tasks is as follows:
  Task     0 has       4821 integration points.
  Task     1 has       4847 integration points.
  Task     2 has       4923 integration points.
  Task     3 has       4870 integration points.
  Task     4 has       4973 integration points.
  Task     5 has       4888 integration points.
  Task     6 has       4860 integration points.
  Task     7 has       4884 integration points.
  Task     8 has       4876 integration points.
  Task     9 has       4826 integration points.
  Task    10 has       4930 integration points.
  Task    11 has       4960 integration points.
  Task    12 has       4925 integration points.
  Task    13 has       4897 integration points.
  Task    14 has       4823 integration points.
  Task    15 has       4915 integration points.
  Task    16 has       4929 integration points.
  Task    17 has       4917 integration points.
  Task    18 has       4836 integration points.
  Task    19 has       4932 integration points.
  Initializing partition tables, free-atom densities, potentials, etc. across the integration grid (initialize_grid_storage).
  | initialize_grid_storage: Actual outermost partition radius vs. multipole_radius_free
  | (-- VB: in principle, multipole_radius_free should be larger, hence this output)
  | Species        1: Confinement radius =              4.999999999999999 AA, multipole_radius_free =              5.054417573612229 AA.
  | Species        1: outer_partition_radius set to              5.054417573612229 AA .
  | Species        2: Confinement radius =              4.999999999999999 AA, multipole_radius_free =              5.019602836301480 AA.
  | Species        2: outer_partition_radius set to              5.019602836301480 AA .
  | Species        3: Confinement radius =              4.999999999999999 AA, multipole_radius_free =              5.043624274424571 AA.
  | Species        3: outer_partition_radius set to              5.043624274424571 AA .
  | Species        4: Confinement radius =              4.999999999999999 AA, multipole_radius_free =              5.048384829883283 AA.
  | Species        4: outer_partition_radius set to              5.048384829883283 AA .
  | Species        5: Confinement radius =              4.999999999999999 AA, multipole_radius_free =              5.005414751018925 AA.
  | Species        5: outer_partition_radius set to              5.005414751018925 AA .
  | Original list of interatomic distances with          15 x         15 entries is created.
  | Net number of integration points:    97832
  | of which are non-zero points    :    88958
  Obtaining max. number of non-zero basis functions in each batch (get_n_compute_maxes).
  | Maximal number of non-zero basis functions:      198 in task     0
  | Maximal number of non-zero basis functions:      195 in task     1
  | Maximal number of non-zero basis functions:      188 in task     2
  | Maximal number of non-zero basis functions:      196 in task     3
  | Maximal number of non-zero basis functions:      195 in task     4
  | Maximal number of non-zero basis functions:      201 in task     5
  | Maximal number of non-zero basis functions:      196 in task     6
  | Maximal number of non-zero basis functions:      201 in task     7
  | Maximal number of non-zero basis functions:      197 in task     8
  | Maximal number of non-zero basis functions:      195 in task     9
  | Maximal number of non-zero basis functions:      190 in task    10
  | Maximal number of non-zero basis functions:      192 in task    11
  | Maximal number of non-zero basis functions:      200 in task    12
  | Maximal number of non-zero basis functions:      199 in task    13
  | Maximal number of non-zero basis functions:      199 in task    14
  | Maximal number of non-zero basis functions:      199 in task    15
  | Maximal number of non-zero basis functions:      198 in task    16
  | Maximal number of non-zero basis functions:      197 in task    17
  | Maximal number of non-zero basis functions:      198 in task    18
  | Maximal number of non-zero basis functions:      194 in task    19
  Selecting the method for density update.
  Loop over occupied states selected for charge density update.
  Integrating Hamiltonian matrix: batch-based integration.
  Time summed over all CPUs for integration: real work        1.663 s, elapsed        1.750 s
  Integrating overlap matrix.
  Time summed over all CPUs for integration: real work        0.416 s, elapsed        0.434 s
  Writing basis function properties and matrices.
    222 basis functions used.
  Not deallocating overlap matrix.

  Updating Kohn-Sham eigenvalues, eigenvectors, occupation numbers, and Fermi level.
  Solving generalized eigenproblem
  Solving real symmetric generalised eigenvalue problem by standard ScaLAPACK.
  Transforming overlap matrix with ScaLAPACK and checking for singularities.
  : Overlap matrix is nonsingular, using Cholesky decomposition
  | Lowest eigenvalue:  0.221923E-02
  Factoring overlap matrix with Cholesky decomposition
  Using Cholesky factor for transformation
  Using 1-stage real ELPA solver
  Determining occupation numbers for Kohn-Sham eigenstates.
  | Chemical potential (Fermi level) in eV                 : -.65037512E+01
  | Error in electron count due to remaining E_F inaccuracy: 0.00000000E+00
  | Maximum occupation number of highest empty state:  0.00E+00

  Writing Kohn-Sham eigenvalues.

  State    Occupation    Eigenvalue [Ha]    Eigenvalue [eV]
      1       2.00000         -88.129888        -2398.13628
      2       2.00000         -88.128167        -2398.08945
      3       2.00000         -88.128161        -2398.08927
      4       2.00000         -14.221354         -386.98275
      5       2.00000         -14.220830         -386.96847
      6       2.00000         -14.209855         -386.66983
      7       2.00000         -14.169014         -385.55848
      8       2.00000         -10.147012         -276.11424
      9       2.00000         -10.146318         -276.09537
     10       2.00000         -10.142798         -275.99958
     11       2.00000         -10.141755         -275.97121
     12       2.00000         -10.138240         -275.87556
     13       2.00000         -10.136146         -275.81856
     14       2.00000         -10.133611         -275.74959
     15       2.00000         -10.098127         -274.78401
     16       2.00000          -7.758053         -211.10736
     17       2.00000          -7.756432         -211.06325
     18       2.00000          -7.756047         -211.05276
     19       2.00000          -5.777618         -157.21699
     20       2.00000          -5.775399         -157.15659
     21       2.00000          -5.775246         -157.15245
     22       2.00000          -5.775089         -157.14817
     23       2.00000          -5.774559         -157.13373
     24       2.00000          -5.773451         -157.10358
     25       2.00000          -5.773364         -157.10122
     26       2.00000          -5.771774         -157.05797
     27       2.00000          -5.771630         -157.05403
     28       2.00000          -1.031460          -28.06745
     29       2.00000          -1.027537          -27.96069
     30       2.00000          -1.024737          -27.88452
     31       2.00000          -0.931150          -25.33787
     32       2.00000          -0.886243          -24.11589
     33       2.00000          -0.879364          -23.92872
     34       2.00000          -0.838695          -22.82206
     35       2.00000          -0.815011          -22.17757
     36       2.00000          -0.747812          -20.34901
     37       2.00000          -0.720729          -19.61204
     38       2.00000          -0.703071          -19.13154
     39       2.00000          -0.644621          -17.54103
     40       2.00000          -0.611135          -16.62983
     41       2.00000          -0.598936          -16.29789
     42       2.00000          -0.561816          -15.28779
     43       2.00000          -0.516267          -14.04835
     44       2.00000          -0.494318          -13.45108
     45       2.00000          -0.487892          -13.27623
     46       2.00000          -0.484570          -13.18582
     47       2.00000          -0.483687          -13.16180
     48       2.00000          -0.466889          -12.70468
     49       2.00000          -0.461700          -12.56350
     50       2.00000          -0.457905          -12.46023
     51       2.00000          -0.450947          -12.27089
     52       2.00000          -0.434306          -11.81806
     53       2.00000          -0.420611          -11.44540
     54       2.00000          -0.396630          -10.79286
     55       2.00000          -0.393967          -10.72039
     56       2.00000          -0.384123          -10.45252
     57       2.00000          -0.376787          -10.25290
     58       2.00000          -0.373196          -10.15517
     59       2.00000          -0.362757           -9.87112
     60       2.00000          -0.339191           -9.22987
     61       2.00000          -0.320790           -8.72913
     62       2.00000          -0.247145           -6.72515
     63       0.00000          -0.235732           -6.41459
     64       0.00000          -0.207042           -5.63390
     65       0.00000          -0.191333           -5.20644
     66       0.00000          -0.166288           -4.52492
     67       0.00000          -0.153853           -4.18656
     68       0.00000          -0.150169           -4.08630
     69       0.00000          -0.129433           -3.52205
     70       0.00000          -0.089131           -2.42539
     71       0.00000          -0.082947           -2.25711
     72       0.00000          -0.074327           -2.02254
     73       0.00000          -0.068265           -1.85759
     74       0.00000          -0.046908           -1.27644
     75       0.00000          -0.022530           -0.61307
     76       0.00000          -0.004356           -0.11854
     77       0.00000           0.013587            0.36972
     78       0.00000           0.040404            1.09946
     79       0.00000           0.067105            1.82601
     80       0.00000           0.082035            2.23228
     81       0.00000           0.102007            2.77574
     82       0.00000           0.120444            3.27745
     83       0.00000           0.131804            3.58658
     84       0.00000           0.151351            4.11847
     85       0.00000           0.155097            4.22041
     86       0.00000           0.159902            4.35115
     87       0.00000           0.172307            4.68871
     88       0.00000           0.175297            4.77007
     89       0.00000           0.180406            4.90909
     90       0.00000           0.185032            5.03498
     91       0.00000           0.190611            5.18679
     92       0.00000           0.196127            5.33689
     93       0.00000           0.203144            5.52783
     94       0.00000           0.209612            5.70384
     95       0.00000           0.214138            5.82700
     96       0.00000           0.219366            5.96925
     97       0.00000           0.221120            6.01699
     98       0.00000           0.229055            6.23292
     99       0.00000           0.238449            6.48853
    100       0.00000           0.243817            6.63459
    101       0.00000           0.247019            6.72174
    102       0.00000           0.255915            6.96381
    103       0.00000           0.263406            7.16763
    104       0.00000           0.273008            7.42892
    105       0.00000           0.282053            7.67504
    106       0.00000           0.290367            7.90128
    107       0.00000           0.297318            8.09043

  Highest occupied state (VBM) at     -6.72514757 eV
  | Occupation number:      2.00000000

  Lowest unoccupied state (CBM) at    -6.41459059 eV
  | Occupation number:      0.00000000

  Overall HOMO-LUMO gap:      0.31055697 eV.
  Calculating total energy contributions from superposition of free atom densities.

  Total energy components:
  | Sum of eigenvalues            :        -995.81186842 Ha      -27097.41964123 eV
  | XC energy correction          :        -145.94487165 Ha       -3971.36201815 eV
  | XC potential correction       :         188.06265013 Ha        5117.44508279 eV
  | Free-atom electrostatic energy:        -763.98503425 Ha      -20789.09051931 eV
  | Hartree energy correction     :           0.00000000 Ha           0.00000000 eV
  | vdW energy correction         :           0.00000000 Ha           0.00000000 eV
  | Entropy correction            :          -0.00000000 Ha          -0.00000000 eV
  | ---------------------------
  | Total energy                  :       -1717.67912419 Ha      -46740.42709589 eV
  | Total energy, T -> 0          :       -1717.67912419 Ha      -46740.42709589 eV  <-- do not rely on this value for anything but (periodic) metals
  | Electronic free energy        :       -1717.67912419 Ha      -46740.42709589 eV

  Derived energy quantities:
  | Kinetic energy                :        1713.22912169 Ha       46619.33636678 eV
  | Electrostatic energy          :       -3284.96337423 Ha      -89388.40144452 eV
  | Energy correction for multipole
  | error in Hartree potential    :           0.00000000 Ha           0.00000000 eV
  | Sum of eigenvalues per atom                           :       -1806.49464275 eV
  | Total energy (T->0) per atom                          :       -3116.02847306 eV  <-- do not rely on this value for anything but (periodic) metals
  | Electronic free energy per atom                       :       -3116.02847306 eV
  Initialize hartree_potential_storage
  Max. number of atoms included in rho_multipole:           15

  End scf initialization - timings             :  max(cpu_time)    wall_clock(cpu1)
  | Time for scf. initialization               :        0.396 s           0.833 s
  | Boundary condition initialization          :        0.005 s           0.038 s
  | Integration                                :        0.078 s           0.128 s
  | Solution of K.-S. eqns.                    :        0.178 s           0.238 s
  | Grid partitioning                          :        0.058 s           0.058 s
  | Preloading free-atom quantities on grid    :        0.006 s           0.018 s
  | Free-atom superposition energy             :        0.008 s           0.007 s
  | Total energy evaluation                    :        0.001 s           0.001 s
------------------------------------------------------------

------------------------------------------------------------
          Begin self-consistency iteration #    1

  Date     :  20151018, Time     :  184809.269
------------------------------------------------------------
  Evaluating new KS density.
  Integration grid: deviation in total charge (<rho> - N_e) =   2.842171E-14
  Pulay mixing of updated and previous charge densities.

  Evaluating partitioned Hartree potential by multipole expansion.
  | Analytical far-field extrapolation by fixed multipoles:
  | Hartree multipole sum: apparent total charge =  -0.495033E-03
  Summing up the Hartree potential.
  Time summed over all CPUs for potential: real work        0.661 s, elapsed        0.694 s
  | RMS charge density error from multipole expansion :   0.207972E-01

  Integrating Hamiltonian matrix: batch-based integration.
  Time summed over all CPUs for integration: real work        0.853 s, elapsed        0.897 s
  Writing basis function properties and matrices.
    222 basis functions used.

  Updating Kohn-Sham eigenvalues, eigenvectors, occupation numbers, and Fermi level.
  Solving generalized eigenproblem
  Solving real symmetric generalised eigenvalue problem by standard ScaLAPACK.
  Using Cholesky factor for transformation
  Using 1-stage real ELPA solver
  Determining occupation numbers for Kohn-Sham eigenstates.
  | Chemical potential (Fermi level) in eV                 : -.48592709E+01
  | Error in electron count due to remaining E_F inaccuracy: 0.00000000E+00
  | Maximum occupation number of highest empty state:  0.00E+00

  Writing Kohn-Sham eigenvalues.

  State    Occupation    Eigenvalue [Ha]    Eigenvalue [eV]
      1       2.00000         -88.369621        -2404.65972
      2       2.00000         -88.259684        -2401.66819
      3       2.00000         -88.200346        -2400.05353
      4       2.00000         -13.937249         -379.25183
      5       2.00000         -13.916060         -378.67525
      6       2.00000         -13.850507         -376.89146
      7       2.00000         -13.786792         -375.15769
      8       2.00000         -10.031880         -272.98135
      9       2.00000         -10.001023         -272.14169
     10       2.00000          -9.979771         -271.56339
     11       2.00000          -9.978496         -271.52870
     12       2.00000          -9.957224         -270.94984
     13       2.00000          -9.936325         -270.38115
     14       2.00000          -9.932942         -270.28909
     15       2.00000          -9.928332         -270.16367
     16       2.00000          -7.965768         -216.75958
     17       2.00000          -7.870609         -214.17017
     18       2.00000          -7.816997         -212.71132
     19       2.00000          -5.988647         -162.95938
     20       2.00000          -5.985434         -162.87193
     21       2.00000          -5.984221         -162.83895
     22       2.00000          -5.893164         -160.36116
     23       2.00000          -5.888975         -160.24715
     24       2.00000          -5.886269         -160.17354
     25       2.00000          -5.839443         -158.89932
     26       2.00000          -5.835779         -158.79963
     27       2.00000          -5.830854         -158.66561
     28       2.00000          -0.978849          -26.63583
     29       2.00000          -0.891439          -24.25729
     30       2.00000          -0.852401          -23.19502
     31       2.00000          -0.832767          -22.66075
     32       2.00000          -0.803207          -21.85638
     33       2.00000          -0.787648          -21.43298
     34       2.00000          -0.762629          -20.75218
     35       2.00000          -0.750561          -20.42381
     36       2.00000          -0.701587          -19.09116
     37       2.00000          -0.662779          -18.03513
     38       2.00000          -0.645485          -17.56453
     39       2.00000          -0.573087          -15.59450
     40       2.00000          -0.563276          -15.32751
     41       2.00000          -0.544640          -14.82042
     42       2.00000          -0.512952          -13.95813
     43       2.00000          -0.485332          -13.20657
     44       2.00000          -0.461554          -12.55953
     45       2.00000          -0.450430          -12.25681
     46       2.00000          -0.425214          -11.57067
     47       2.00000          -0.416486          -11.33316
     48       2.00000          -0.398180          -10.83503
     49       2.00000          -0.374264          -10.18424
     50       2.00000          -0.365023           -9.93277
     51       2.00000          -0.346086           -9.41748
     52       2.00000          -0.336781           -9.16427
     53       2.00000          -0.331073           -9.00897
     54       2.00000          -0.306913           -8.35152
     55       2.00000          -0.296636           -8.07189
     56       2.00000          -0.293188           -7.97806
     57       2.00000          -0.281126           -7.64982
     58       2.00000          -0.273371           -7.43880
     59       2.00000          -0.269999           -7.34706
     60       2.00000          -0.262631           -7.14657
     61       2.00000          -0.247632           -6.73840
     62       2.00000          -0.214827           -5.84573
     63       0.00000          -0.163040           -4.43654
     64       0.00000          -0.148690           -4.04606
     65       0.00000          -0.133151           -3.62322
     66       0.00000          -0.117449           -3.19594
     67       0.00000          -0.100122           -2.72447
     68       0.00000          -0.088286           -2.40239
     69       0.00000          -0.075023           -2.04149
     70       0.00000          -0.055678           -1.51508
     71       0.00000          -0.046179           -1.25660
     72       0.00000          -0.027364           -0.74462
     73       0.00000          -0.007475           -0.20340
     74       0.00000           0.004573            0.12443
     75       0.00000           0.017677            0.48102
     76       0.00000           0.053074            1.44421
     77       0.00000           0.056687            1.54252
     78       0.00000           0.072946            1.98497
     79       0.00000           0.090817            2.47125
     80       0.00000           0.097524            2.65378
     81       0.00000           0.119804            3.26003
     82       0.00000           0.127965            3.48210
     83       0.00000           0.134986            3.67316
     84       0.00000           0.144049            3.91977
     85       0.00000           0.156865            4.26852
     86       0.00000           0.164856            4.48597
     87       0.00000           0.171249            4.65992
     88       0.00000           0.178952            4.86952
     89       0.00000           0.185260            5.04119
     90       0.00000           0.187386            5.09903
     91       0.00000           0.198109            5.39083
     92       0.00000           0.200787            5.46368
     93       0.00000           0.211321            5.75035
     94       0.00000           0.222171            6.04558
     95       0.00000           0.229125            6.23480
     96       0.00000           0.231083            6.28808
     97       0.00000           0.245099            6.66948
     98       0.00000           0.248938            6.77394
     99       0.00000           0.259448            7.05994
    100       0.00000           0.266320            7.24694
    101       0.00000           0.277798            7.55926
    102       0.00000           0.292962            7.97191
    103       0.00000           0.293663            7.99097
    104       0.00000           0.301697            8.20958
    105       0.00000           0.311121            8.46604
    106       0.00000           0.323974            8.81577
    107       0.00000           0.337326            9.17910

  Highest occupied state (VBM) at     -5.84573060 eV
  | Occupation number:      2.00000000

  Lowest unoccupied state (CBM) at    -4.43653835 eV
  | Occupation number:      0.00000000

  Overall HOMO-LUMO gap:      1.40919224 eV.

  Total energy components:
  | Sum of eigenvalues            :        -989.10492910 Ha      -26914.91453672 eV
  | XC energy correction          :        -146.89221486 Ha       -3997.14053859 eV
  | XC potential correction       :         189.29586152 Ha        5151.00247203 eV
  | Free-atom electrostatic energy:        -763.98503425 Ha      -20789.09051931 eV
  | Hartree energy correction     :          -6.95097261 Ha        -189.14558828 eV
  | vdW energy correction         :           0.00000000 Ha           0.00000000 eV
  | Entropy correction            :           0.00000000 Ha           0.00000000 eV
  | ---------------------------
  | Total energy                  :       -1717.63728931 Ha      -46739.28871086 eV
  | Total energy, T -> 0          :       -1717.63728931 Ha      -46739.28871086 eV  <-- do not rely on this value for anything but (periodic) metals
  | Electronic free energy        :       -1717.63728931 Ha      -46739.28871086 eV

  Derived energy quantities:
  | Kinetic energy                :        1716.21643274 Ha       46700.62523652 eV
  | Electrostatic energy          :       -3286.96150719 Ha      -89442.77340880 eV
  | Energy correction for multipole
  | error in Hartree potential    :           0.06566698 Ha           1.78688948 eV
  | Sum of eigenvalues per atom                           :       -1794.32763578 eV
  | Total energy (T->0) per atom                          :       -3115.95258072 eV  <-- do not rely on this value for anything but (periodic) metals
  | Electronic free energy per atom                       :       -3115.95258072 eV

  Self-consistency convergence accuracy:
  | Change of charge density      :  0.6268E+00
  | Change of sum of eigenvalues  :  0.1825E+03 eV
  | Change of total energy        :  0.1138E+01 eV

  End self-consistency iteration #     1       :  max(cpu_time)    wall_clock(cpu1)
  | Time for this iteration                    :        0.352 s           0.384 s
  | Charge density update                      :        0.050 s           0.066 s
  | Density mixing                             :        0.001 s           0.008 s
  | Hartree multipole update                   :        0.020 s           0.019 s
  | Hartree multipole summation                :        0.035 s           0.041 s
  | Integration                                :        0.046 s           0.046 s
  | Solution of K.-S. eqns.                    :        0.161 s           0.007 s
  | Total energy evaluation                    :        0.001 s           0.000 s
------------------------------------------------------------

------------------------------------------------------------
          Begin self-consistency iteration #    2

  Date     :  20151018, Time     :  184809.654
------------------------------------------------------------
  Evaluating new KS density.
  Integration grid: deviation in total charge (<rho> - N_e) =   2.842171E-14
  Pulay mixing of updated and previous charge densities.

  Evaluating partitioned Hartree potential by multipole expansion.
  | Analytical far-field extrapolation by fixed multipoles:
  | Hartree multipole sum: apparent total charge =  -0.521652E-03
  Summing up the Hartree potential.
  Time summed over all CPUs for potential: real work        0.597 s, elapsed        0.612 s
  | RMS charge density error from multipole expansion :   0.238941E-01

  Integrating Hamiltonian matrix: batch-based integration.
  Time summed over all CPUs for integration: real work        0.851 s, elapsed        0.891 s
  Writing basis function properties and matrices.
    222 basis functions used.

  Updating Kohn-Sham eigenvalues, eigenvectors, occupation numbers, and Fermi level.
  Solving generalized eigenproblem
  Solving real symmetric generalised eigenvalue problem by standard ScaLAPACK.
  Using Cholesky factor for transformation
  Using 1-stage real ELPA solver
  Determining occupation numbers for Kohn-Sham eigenstates.
  | Chemical potential (Fermi level) in eV                 : -.49256454E+01
  | Error in electron count due to remaining E_F inaccuracy: 0.00000000E+00
  | Maximum occupation number of highest empty state:  0.00E+00

  Highest occupied state (VBM) at     -5.92429949 eV
  | Occupation number:      2.00000000

  Lowest unoccupied state (CBM) at    -4.71784578 eV
  | Occupation number:      0.00000000

  Overall HOMO-LUMO gap:      1.20645370 eV.

  Total energy components:
  | Sum of eigenvalues            :        -986.93821977 Ha      -26855.95537597 eV
  | XC energy correction          :        -146.71158374 Ha       -3992.22531577 eV
  | XC potential correction       :         189.06141979 Ha        5144.62298811 eV
  | Free-atom electrostatic energy:        -763.98503425 Ha      -20789.09051931 eV
  | Hartree energy correction     :          -8.86212238 Ha        -241.15061952 eV
  | vdW energy correction         :           0.00000000 Ha           0.00000000 eV
  | Entropy correction            :           0.00000000 Ha           0.00000000 eV
  | ---------------------------
  | Total energy                  :       -1717.43554035 Ha      -46733.79884246 eV
  | Total energy, T -> 0          :       -1717.43554035 Ha      -46733.79884246 eV  <-- do not rely on this value for anything but (periodic) metals
  | Electronic free energy        :       -1717.43554035 Ha      -46733.79884246 eV

  Derived energy quantities:
  | Kinetic energy                :        1715.65061287 Ha       46685.22849439 eV
  | Electrostatic energy          :       -3286.37456948 Ha      -89426.80202108 eV
  | Energy correction for multipole
  | error in Hartree potential    :           0.07448963 Ha           2.02696588 eV
  | Sum of eigenvalues per atom                           :       -1790.39702506 eV
  | Total energy (T->0) per atom                          :       -3115.58658950 eV  <-- do not rely on this value for anything but (periodic) metals
  | Electronic free energy per atom                       :       -3115.58658950 eV

  Self-consistency convergence accuracy:
  | Change of charge density      :  0.6364E+00
  | Change of sum of eigenvalues  :  0.5896E+02 eV
  | Change of total energy        :  0.5490E+01 eV

  End self-consistency iteration #     2       :  max(cpu_time)    wall_clock(cpu1)
  | Time for this iteration                    :        0.330 s           0.337 s
  | Charge density update                      :        0.047 s           0.047 s
  | Density mixing                             :        0.002 s           0.007 s
  | Hartree multipole update                   :        0.002 s           0.001 s
  | Hartree multipole summation                :        0.031 s           0.031 s
  | Integration                                :        0.045 s           0.046 s
  | Solution of K.-S. eqns.                    :        0.162 s           0.007 s
  | Total energy evaluation                    :        0.001 s           0.001 s
------------------------------------------------------------

------------------------------------------------------------
          Begin self-consistency iteration #    3

  Date     :  20151018, Time     :  184809.992
------------------------------------------------------------
  Evaluating new KS density.
  Integration grid: deviation in total charge (<rho> - N_e) =   5.684342E-14
  Pulay mixing of updated and previous charge densities.

  Evaluating partitioned Hartree potential by multipole expansion.
  | Analytical far-field extrapolation by fixed multipoles:
  | Hartree multipole sum: apparent total charge =  -0.564974E-03
  Summing up the Hartree potential.
  Time summed over all CPUs for potential: real work        0.597 s, elapsed        0.613 s
  | RMS charge density error from multipole expansion :   0.272551E-01

  Integrating Hamiltonian matrix: batch-based integration.
  Time summed over all CPUs for integration: real work        0.851 s, elapsed        0.892 s
  Writing basis function properties and matrices.
    222 basis functions used.

  Updating Kohn-Sham eigenvalues, eigenvectors, occupation numbers, and Fermi level.
  Solving generalized eigenproblem
  Solving real symmetric generalised eigenvalue problem by standard ScaLAPACK.
  Using Cholesky factor for transformation
  Using 1-stage real ELPA solver
  Determining occupation numbers for Kohn-Sham eigenstates.
  | Chemical potential (Fermi level) in eV                 : -.47905590E+01
  | Error in electron count due to remaining E_F inaccuracy: 0.00000000E+00
  | Maximum occupation number of highest empty state:  0.00E+00

[...]
     82       0.00000           0.144927            3.94366
     83       0.00000           0.156345            4.25437
     84       0.00000           0.166888            4.54126
     85       0.00000           0.171436            4.66501
     86       0.00000           0.174569            4.75025
     87       0.00000           0.185769            5.05504
     88       0.00000           0.194044            5.28020
     89       0.00000           0.196818            5.35569
     90       0.00000           0.204591            5.56721
     91       0.00000           0.213914            5.82089
     92       0.00000           0.216922            5.90275
     93       0.00000           0.224878            6.11926
     94       0.00000           0.228278            6.21175
     95       0.00000           0.239568            6.51897
     96       0.00000           0.243844            6.63534
     97       0.00000           0.250879            6.82677
     98       0.00000           0.252381            6.86765
     99       0.00000           0.261719            7.12172
    100       0.00000           0.272185            7.40652
    101       0.00000           0.275614            7.49984
    102       0.00000           0.286756            7.80303
    103       0.00000           0.294136            8.00386
    104       0.00000           0.298561            8.12425
    105       0.00000           0.307302            8.36211
    106       0.00000           0.319186            8.68548
    107       0.00000           0.329661            8.97053

  Highest occupied state (VBM) at     -6.17269192 eV
  | Occupation number:      2.00000000

  Lowest unoccupied state (CBM) at    -4.99036251 eV
  | Occupation number:      0.00000000

  Overall HOMO-LUMO gap:      1.18232940 eV.

  Self-consistency cycle converged.

  End self-consistency iteration #    16       :  max(cpu_time)    wall_clock(cpu1)
  | Time for this iteration                    :        0.332 s           0.338 s
  | Charge density update                      :        0.048 s           0.047 s
  | Density mixing                             :        0.003 s           0.003 s
  | Hartree multipole update                   :        0.002 s           0.001 s
  | Hartree multipole summation                :        0.032 s           0.032 s
  | Integration                                :        0.045 s           0.045 s
  | Solution of K.-S. eqns.                    :        0.162 s           0.007 s
  | Total energy evaluation                    :        0.001 s           0.001 s
------------------------------------------------------------
  Writing cluster restart information to file h_kv
  Obtaining max. number of non-zero basis functions in each batch .
  Evaluating KS electron density on previously omitted grid points.
  Evaluating non-empirical van der Waals correction (Tkatchenko/Scheffler 2009).
  Performing Hirshfeld analysis of fragment charges and moments.
  ----------------------------------------------------------------------
  | Atom     1: S
  |   Hirshfeld charge        :      0.15400634
  |   Free atom volume        :     75.43381502
  |   Hirshfeld volume        :     67.90927737
  |   Hirshfeld dipole vector :     -0.00494542      -0.01886131      -0.00589395
  |   Hirshfeld dipole moment :      0.02037019
  |   Hirshfeld second moments:      0.15823337      -0.04991788       0.03169311
  |                                 -0.04991788       0.21606344       0.04682442
  |                                  0.03169311       0.04682442       0.17994690
  ----------------------------------------------------------------------
  | Atom     2: C
  |   Hirshfeld charge        :     -0.01174599
  |   Free atom volume        :     37.23478229
  |   Hirshfeld volume        :     32.90798996
  |   Hirshfeld dipole vector :      0.01509604      -0.00153666       0.01883343
  |   Hirshfeld dipole moment :      0.02418573
  |   Hirshfeld second moments:      0.09820781       0.01285193      -0.04260365
  |                                  0.01285193       0.10866813      -0.00560823
  |                                 -0.04260365      -0.00560823       0.11008819
  ----------------------------------------------------------------------
  | Atom     3: C
  |   Hirshfeld charge        :      0.00572349
  |   Free atom volume        :     37.23478229
  |   Hirshfeld volume        :     33.46699260
  |   Hirshfeld dipole vector :      0.01980482       0.00379650       0.00832603
  |   Hirshfeld dipole moment :      0.02181667
  |   Hirshfeld second moments:      0.14243727      -0.00815684      -0.05371760
  |                                 -0.00815684       0.06459588       0.00432387
  |                                 -0.05371760       0.00432387       0.08603110
  ----------------------------------------------------------------------
  | Atom     4: S
  |   Hirshfeld charge        :      0.14243276
  |   Free atom volume        :     75.43381502
  |   Hirshfeld volume        :     67.95555364
  |   Hirshfeld dipole vector :      0.01483871      -0.00859258       0.02436864
  |   Hirshfeld dipole moment :      0.02979682
  |   Hirshfeld second moments:      0.15288236      -0.04262496       0.05714225
  |                                 -0.04262496       0.24329961       0.05032442
  |                                  0.05714225       0.05032442       0.14744138
  ----------------------------------------------------------------------
  | Atom     5: C
  |   Hirshfeld charge        :     -0.03052568
  |   Free atom volume        :     37.23478229
  |   Hirshfeld volume        :     33.32340827
  |   Hirshfeld dipole vector :      0.00255013       0.04202438      -0.02236114
  |   Hirshfeld dipole moment :      0.04767150
  |   Hirshfeld second moments:      0.11434804       0.00911825      -0.02850529
  |                                  0.00911825       0.06608877      -0.00476386
  |                                 -0.02850529      -0.00476386       0.10371108
  ----------------------------------------------------------------------
  | Atom     6: C
  |   Hirshfeld charge        :     -0.01293385
  |   Free atom volume        :     37.23478229
  |   Hirshfeld volume        :     33.15960390
  |   Hirshfeld dipole vector :     -0.00987392       0.01616470      -0.01667562
  |   Hirshfeld dipole moment :      0.02523624
  |   Hirshfeld second moments:      0.09842942       0.03081087      -0.03322417
  |                                  0.03081087       0.11022002      -0.01968120
  |                                 -0.03322417      -0.01968120       0.09263613
  ----------------------------------------------------------------------
  | Atom     7: C
  |   Hirshfeld charge        :      0.03567661
  |   Free atom volume        :     37.23478229
  |   Hirshfeld volume        :     33.43290114
  |   Hirshfeld dipole vector :      0.01943986      -0.06075557       0.06282112
  |   Hirshfeld dipole moment :      0.08953011
  |   Hirshfeld second moments:      0.10104514       0.06386929       0.00804961
  |                                  0.06386929       0.05838949       0.01009471
  |                                  0.00804961       0.01009471       0.12979377
  ----------------------------------------------------------------------
  | Atom     8: C
  |   Hirshfeld charge        :      0.04558999
  |   Free atom volume        :     37.23478229
  |   Hirshfeld volume        :     32.05377148
  |   Hirshfeld dipole vector :     -0.02981329      -0.01637295      -0.06834796
  |   Hirshfeld dipole moment :      0.07634363
  |   Hirshfeld second moments:      0.17042289      -0.04746805      -0.05235601
  |                                 -0.04746805       0.12180886      -0.08543896
  |                                 -0.05235601      -0.08543896       0.11713273
  ----------------------------------------------------------------------
  | Atom     9: N
  |   Hirshfeld charge        :     -0.10279173
  |   Free atom volume        :     29.49700313
  |   Hirshfeld volume        :     28.29930075
  |   Hirshfeld dipole vector :      0.02967320      -0.02757827      -0.00795140
  |   Hirshfeld dipole moment :      0.04128298
  |   Hirshfeld second moments:      0.01517327       0.02332666      -0.02686297
  |                                  0.02332666      -0.02740417       0.02156712
  |                                 -0.02686297       0.02156712       0.04059817
  ----------------------------------------------------------------------
  | Atom    10: N
  |   Hirshfeld charge        :     -0.17029634
  |   Free atom volume        :     29.49700313
  |   Hirshfeld volume        :     27.47423041
  |   Hirshfeld dipole vector :     -0.01575908      -0.02015991      -0.01777329
  |   Hirshfeld dipole moment :      0.03115542
  |   Hirshfeld second moments:      0.04449807      -0.02991882      -0.03486955
  |                                 -0.02991882       0.03134780      -0.04789297
  |                                 -0.03486955      -0.04789297      -0.00011517
  ----------------------------------------------------------------------
  | Atom    11: C
  |   Hirshfeld charge        :     -0.02152130
  |   Free atom volume        :     37.23478229
  |   Hirshfeld volume        :     32.76801377
  |   Hirshfeld dipole vector :     -0.01584234      -0.01686567      -0.03853985
  |   Hirshfeld dipole moment :      0.04495276
  |   Hirshfeld second moments:      0.11024690      -0.00207725      -0.03797585
  |                                 -0.00207725       0.09568119      -0.00195021
  |                                 -0.03797585      -0.00195021       0.11653010
  ----------------------------------------------------------------------
  | Atom    12: C
  |   Hirshfeld charge        :      0.04934609
  |   Free atom volume        :     37.23478229
  |   Hirshfeld volume        :     31.74716688
  |   Hirshfeld dipole vector :      0.05347650      -0.02305534       0.04907865
  |   Hirshfeld dipole moment :      0.07615772
  |   Hirshfeld second moments:      0.09280101       0.00633833      -0.09970566
  |                                  0.00633833       0.21429945      -0.00002293
  |                                 -0.09970566      -0.00002293       0.12205942
  ----------------------------------------------------------------------
  | Atom    13: N
  |   Hirshfeld charge        :     -0.16647886
  |   Free atom volume        :     29.49700313
  |   Hirshfeld volume        :     27.38255131
  |   Hirshfeld dipole vector :      0.02282370      -0.00086237       0.01527923
  |   Hirshfeld dipole moment :      0.02747944
  |   Hirshfeld second moments:      0.00009201       0.00808932      -0.05737511
  |                                  0.00808932       0.06953745       0.00570729
  |                                 -0.05737511       0.00570729       0.01322239
  ----------------------------------------------------------------------
  | Atom    14: N
  |   Hirshfeld charge        :     -0.16002126
  |   Free atom volume        :     29.49700313
  |   Hirshfeld volume        :     27.75725110
  |   Hirshfeld dipole vector :     -0.04121423       0.03401790      -0.05988004
  |   Hirshfeld dipole moment :      0.08025865
  |   Hirshfeld second moments:      0.03921000       0.02088560      -0.02966434
  |                                  0.02088560       0.02779544       0.02894948
  |                                 -0.02966434       0.02894948       0.01422451
  ----------------------------------------------------------------------
  | Atom    15: S
  |   Hirshfeld charge        :      0.24275308
  |   Free atom volume        :     75.43381502
  |   Hirshfeld volume        :     66.48100001
  |   Hirshfeld dipole vector :     -0.00820297      -0.05202062       0.00276699
  |   Hirshfeld dipole moment :      0.05273604
  |   Hirshfeld second moments:      0.20479624       0.01058555       0.05627707
  |                                  0.01058555       0.21343856      -0.01145186
  |                                  0.05627707      -0.01145186       0.26018982
  ----------------------------------------------------------------------


  Total energy components:
  | Sum of eigenvalues            :        -988.22979451 Ha      -26891.10091282 eV
  | XC energy correction          :        -146.68276799 Ha       -3991.44119931 eV
  | XC potential correction       :         189.02277901 Ha        5143.57151888 eV
  | Free-atom electrostatic energy:        -763.98503425 Ha      -20789.09051931 eV
  | Hartree energy correction     :          -7.48895510 Ha        -203.78483686 eV
  | vdW energy correction         :          -0.00800360 Ha          -0.21778904 eV
  | Entropy correction            :          -0.00000000 Ha          -0.00000000 eV
  | ---------------------------
  | Total energy                  :       -1717.37177645 Ha      -46732.06373847 eV
  | Total energy, T -> 0          :       -1717.37177645 Ha      -46732.06373847 eV  <-- do not rely on this value for anything but (periodic) metals
  | Electronic free energy        :       -1717.37177645 Ha      -46732.06373847 eV

  Derived energy quantities:
  | Kinetic energy                :        1714.14725116 Ha       46644.31994102 eV
  | Electrostatic energy          :       -3284.82825602 Ha      -89384.72469113 eV
  | Energy correction for multipole
  | error in Hartree potential    :           0.08948119 Ha           2.43490702 eV
  | Sum of eigenvalues per atom                           :       -1792.74006085 eV
  | Total energy (T->0) per atom                          :       -3115.47091590 eV  <-- do not rely on this value for anything but (periodic) metals
  | Electronic free energy per atom                       :       -3115.47091590 eV
  Timings for VdW correction (Tkatchenko-Scheffler 2009 or later):
  | CPU time:        0.066 s, Wall clock time:        0.029 s.

  Energy and forces in a compact form:
  | Total energy uncorrected      :         -0.467320637384665E+05 eV
  | Total energy corrected        :         -0.467320637384665E+05 eV  <-- do not rely on this value for anything but (periodic) metals
  | Electronic free energy        :         -0.467320637384665E+05 eV

  ------------------------------------ 
  Start decomposition of the XC Energy 
  ------------------------------------ 
  Hartree-Fock part   :          0.000000000 Ha              0.000000000 eV
  ------------------------------------ 
  X Energy            :       -142.263289355 Ha          -3871.181066875 eV
  C Energy GGA        :         -4.419478635 Ha           -120.260132436 eV
  Total XC Energy     :       -146.682767990 Ha          -3991.441199311 eV
  LDA X and C from self-consistent density 
  X Energy LDA        :       -130.432428886 Ha          -3549.246973696 eV
  C Energy LDA        :         -8.778605203 Ha           -238.878001565 eV
  ------------------------------------ 
  End decomposition of the XC Energy 
  ------------------------------------ 

------------------------------------------------------------------------------
  Final output of selected total energy values:

  The following output summarizes some interesting total energy values
  at the end of a run (AFTER all relaxation, molecular dynamics, etc.).

  | Total energy of the DFT / Hartree-Fock s.c.f. calculation      :         -46732.063738466 eV
  | Final zero-broadening corrected energy (caution - metals only) :         -46732.063738466 eV
  | For reference only, the value of 1 Hartree used in FHI-aims is :             27.211384500 eV

  Before relying on these values, please be sure to understand exactly which
  total energy value is referred to by a given number. Different objects may
  all carry the same name 'total energy'. Definitions:

  Total energy of the DFT / Hartree-Fock s.c.f. calculation:
  | Note that this energy does not include ANY quantities calculated after the
  | s.c.f. cycle, in particular not ANY RPA, MP2, etc. many-body perturbation terms.

  Final zero-broadening corrected energy:
  | For metallic systems only, a broadening of the occupation numbers at the Fermi
  | level can be extrapolated back to zero broadening by an electron-gas inspired
  | formula. For all systems that are not real metals, this value can be
  | meaningless and should be avoided.

------------------------------------------------------------------------------
  Methods described in the following list of references were used in this FHI-aims run.
  If you publish the results, please make sure to cite these reference if they apply.
  FHI-aims is an academic code, and for our developers (often, Ph.D. students
  and postdocs), scientific credit in the community is essential.
  Thank you for helping us!

  For any use of FHI-aims, please cite:

    Volker Blum, Ralf Gehrke, Felix Hanke, Paula Havu, Ville Havu,
    Xinguo Ren, Karsten Reuter, and Matthias Scheffler
    'Ab initio molecular simulations with numeric atom-centered orbitals'
    Computer Physics Communications 180, 2175-2196 (2009)
    http://dx.doi.org/10.1016/j.cpc.2009.06.022


  The scalable eigensolver library ELPA was used in your run.
  ELPA is essential especially for large systems on hundreds or thousands of CPUs.
  For ELPA, please cite:

    Andreas Marek, Volker Blum, Rainer Johanni, Ville Havu, Bruno Lang,
    Thomas Auckenthaler, Alexander Heinecke, Hans-Joachim Bungartz, and Hermann Lederer,
    'The ELPA Library - Scalable Parallel Eigenvalue Solutions
    for Electronic Structure Theory and Computational Science'
    The Journal of Physics: Condensed Matter 26, 213201 (2014).
    http://dx.doi.org/10.1088/0953-8984/26/21/213201


  For the real-space grid partitioning and parallelization used in this calculation, please cite:

    Ville Havu, Volker Blum, Paula Havu, and Matthias Scheffler,
    'Efficient O(N) integration for all-electron electronic structure calculation'
    'using numerically tabulated basis functions'
    Journal of Computational Physics 228, 8367-8379 (2009).
    http://dx.doi.org/10.1016/j.jcp.2009.08.008

  Of course, there are many other important community references, e.g., those cited in the
  above references. Our list is limited to references that describe implementations in the
  FHI-aims code. The reason is purely practical (length of this list) - please credit others as well.

------------------------------------------------------------
          Leaving FHI-aims.
          Date     :  20151018, Time     :  184815.024

          Computational steps:
          | Number of self-consistency cycles          :           16

          Detailed time accounting                     :  max(cpu_time)    wall_clock(cpu1)
          | Total time                                 :        6.177 s           7.546 s
          | Preparation time                           :        0.306 s           0.603 s
          | Grid partitioning                          :        0.058 s           0.058 s
          | Preloading free-atom quantities on grid    :        0.006 s           0.018 s
          | Free-atom superposition energy             :        0.008 s           0.007 s
          | Total time for integrations                :        0.805 s           0.856 s
          | Total time for solution of K.-S. equations :        2.807 s           0.351 s
          | Total time for density update              :        0.768 s           0.771 s
          | Total time for mixing                      :        0.035 s           0.044 s
          | Total time for Hartree multipole update    :        0.053 s           0.043 s
          | Total time for Hartree multipole sum       :        0.507 s           0.511 s
          | Total time for total energy evaluation     :        0.009 s           0.015 s
          | Total time for vdW correction              :        0.066 s           0.029 s

          Have a nice day.
------------------------------------------------------------
