------------------------------------------------------------
          Invoking FHI-aims ...
          Version 190522
          Compiled on 2019/10/10 at 22:48:22 on host coe.psc.edu.

          When using FHI-aims, please cite the following reference:

          Volker Blum, Ralf Gehrke, Felix Hanke, Paula Havu,
          Ville Havu, Xinguo Ren, Karsten Reuter, and Matthias Scheffler,
          'Ab Initio Molecular Simulations with Numeric Atom-Centered Orbitals',
          Computer Physics Communications 180, 2175-2196 (2009)

          For any questions about FHI-aims, please visit the aimsclub website
          with its forums and wiki. Contributions to both the forums and the
          wiki are warmly encouraged - they are for you, and everyone is welcome there.

------------------------------------------------------------



  Date     :  20191121, Time     :  121754.251
  Time zero on CPU 1             :   0.164975373100000E+04  s.
  Internal wall clock time zero  :           343570674.251  s.

  FHI-aims created a unique identifier for this run for later identification
  aims_uuid : 7338CCB6-83D2-456C-A354-26C5F34C74B8

  Using        4 parallel tasks.
  Task        0 on host e002 reporting.
  Task        1 on host e002 reporting.
  Task        2 on host e002 reporting.
  Task        3 on host e002 reporting.

  Performing system and environment tests:
  | Environment variable OMP_NUM_THREADS correctly set to 1.
  | Maximum stacksize for task 0: unlimited
  | Maximum stacksize for task 1: unlimited
  | Maximum stacksize for task 2: unlimited
  | Maximum stacksize for task 3: unlimited
  | Current stacksize for task 0: unlimited
  | Current stacksize for task 1: unlimited
  | Current stacksize for task 2: unlimited
  | Current stacksize for task 3: unlimited
  | Checking for scalapack...
  | Testing pdtran()...
  | All pdtran() tests passed.

  Obtaining array dimensions for all initial allocations:
  
  -----------------------------------------------------------------------
  Parsing control.in (first pass over file, find array dimensions only).
  The contents of control.in will be repeated verbatim below
  unless switched off by setting 'verbatim_writeout .false.' .
  in the first line of control.in .
  -----------------------------------------------------------------------
  
   #########################################################################################
  #
  #  Physical model
  #
    xc                 pbe
    spin               none
  #  relativistic       zora scalar 1E-12
    charge             0.
  #
  #  SCF convergence
  #
    occupation_type    gaussian 0.01
    mixer              pulay
      n_max_pulay        10
      charge_mix_param   0.5
    sc_accuracy_rho    1E-4
    sc_accuracy_eev    1E-2
    sc_accuracy_etot   1E-6
  #  sc_accuracy_forces 1E-4
  
   vdw_correction_hirshfeld
  #
  # For rotated restarts:
  sc_iter_limit                      1000
  postprocess_anyway                 .true.
  k_grid 			    3 3 3
   KS_method parallel
   #restart                    .true.
  # restart_write_only                 h_kv
  # restart_read_only restart.combined
  #force_single_restartfile           .true.
    ################################################################################
    #
    #  FHI-aims code project
    #  VB, Fritz-Haber Institut, 2009
    #
    #  Suggested "light" defaults for H atom (to be pasted into control.in file)
    #  Be sure to double-check any results obtained with these settings for post-processing,
    #  e.g., with the "tight" defaults and larger basis sets.
    #
    ################################################################################
      species        H
    #     global species definitions
        nucleus             1
        mass                1.00794
    #
        l_hartree           4
    #
        cut_pot             3.5  1.5  1.0
        basis_dep_cutoff    1e-4
    #
        radial_base         24 5.0
        radial_multiplier   1
        angular_grids       specified
          division   0.2421   50
          division   0.3822  110
          division   0.4799  194
          division   0.5341  302
    #      division   0.5626  434
    #      division   0.5922  590
    #      division   0.6542  770
    #      division   0.6868 1202
    #      outer_grid  770
          outer_grid  302
    ################################################################################
    #
    #  Definition of "minimal" basis
    #
    ################################################################################
    #     valence basis states
        valence      1  s   1.
    #     ion occupancy
        ion_occ      1  s   0.5
    ################################################################################
    #
    #  Suggested additional basis functions. For production calculations,
    #  uncomment them one after another (the most important basis functions are
    #  listed first).
    #
    #  Basis constructed for dimers: 0.5 A, 0.7 A, 1.0 A, 1.5 A, 2.5 A
    #
    ################################################################################
    #  "First tier" - improvements: -1014.90 meV to -62.69 meV
         hydro 2 s 2.1
         hydro 2 p 3.5
    #  "Second tier" - improvements: -12.89 meV to -1.83 meV
    #     hydro 1 s 0.85
    #     hydro 2 p 3.7
    #     hydro 2 s 1.2
    #     hydro 3 d 7
    #  "Third tier" - improvements: -0.25 meV to -0.12 meV
    #     hydro 4 f 11.2
    #     hydro 3 p 4.8
    #     hydro 4 d 9
    #     hydro 3 s 3.2
    ################################################################################
    #
    #  FHI-aims code project
    #  VB, Fritz-Haber Institut, 2009
    #
    #  Suggested "light" defaults for C atom (to be pasted into control.in file)
    #  Be sure to double-check any results obtained with these settings for post-processing,
    #  e.g., with the "tight" defaults and larger basis sets.
    #
    ################################################################################
      species        C
    #     global species definitions
        nucleus             6
        mass                12.0107
    #
        l_hartree           4
    #
        cut_pot             3.5  1.5  1.0
        basis_dep_cutoff    1e-4
    #
        radial_base         34 5.0
        radial_multiplier   1
        angular_grids specified
          division   0.3326   50
          division   0.5710  110
          division   0.7727  194
          division   0.8772  302
    #      division   0.9334  434
    #      division   0.9625  590
    #      division   0.9924  770
    #      division   1.0230  974
    #      division   1.4589 1202
    #     outer_grid  974
         outer_grid 302
    ################################################################################
    #
    #  Definition of "minimal" basis
    #
    ################################################################################
    #     valence basis states
        valence      2  s   2.
        valence      2  p   2.
    #     ion occupancy
        ion_occ      2  s   1.
        ion_occ      2  p   1.
    ################################################################################
    #
    #  Suggested additional basis functions. For production calculations,
    #  uncomment them one after another (the most important basis functions are
    #  listed first).
    #
    #  Constructed for dimers: 1.0 A, 1.25 A, 1.5 A, 2.0 A, 3.0 A
    #
    ################################################################################
    #  "First tier" - improvements: -1214.57 meV to -155.61 meV
         hydro 2 p 1.7
         hydro 3 d 6
         hydro 2 s 4.9
    #  "Second tier" - improvements: -67.75 meV to -5.23 meV
    #     hydro 4 f 9.8
    #     hydro 3 p 5.2
    #     hydro 3 s 4.3
    #     hydro 5 g 14.4
    #     hydro 3 d 6.2
    #  "Third tier" - improvements: -2.43 meV to -0.60 meV
    #     hydro 2 p 5.6
    #     hydro 2 s 1.4
    #     hydro 3 d 4.9
    #     hydro 4 f 11.2
    #  "Fourth tier" - improvements: -0.39 meV to -0.18 meV
    #     hydro 2 p 2.1
    #     hydro 5 g 16.4
    #     hydro 4 d 13.2
    #     hydro 3 s 13.6
    #     hydro 4 f 17.6
    #  Further basis functions - improvements: -0.08 meV and below
    #     hydro 3 s 2
    #     hydro 3 p 6
    #     hydro 4 d 20
    ################################################################################
    #
    #  FHI-aims code project
    #  VB, Fritz-Haber Institut, 2009
    #
    #  Suggested "light" defaults for N atom (to be pasted into control.in file)
    #  Be sure to double-check any results obtained with these settings for post-processing,
    #  e.g., with the "tight" defaults and larger basis sets.
    #
    ################################################################################
      species        N
    #     global species definitions
        nucleus             7
        mass                14.0067
    #
        l_hartree           4
    #
        cut_pot             3.5  1.5  1.0
        basis_dep_cutoff    1e-4
    #
        radial_base         35 5.0
        radial_multiplier   1
        angular_grids       specified
          division   0.2599   50
          division   0.4601  110
          division   0.5885  194
          division   0.6503  302
    #      division   0.6939  434
    #      division   0.7396  590
    #      division   0.7632  770
    #      division   0.8122  974
    #      division   1.1604 1202
    #      outer_grid  974
          outer_grid  302
    ################################################################################
    #
    #  Definition of "minimal" basis
    #
    ################################################################################
    #     valence basis states
        valence      2  s   2.
        valence      2  p   3.
    #     ion occupancy
        ion_occ      2  s   1.
        ion_occ      2  p   2.
    ################################################################################
    #
    #  Suggested additional basis functions. For production calculations,
    #  uncomment them one after another (the most important basis functions are
    #  listed first).
    #
    #  Constructed for dimers: 1.0 A, 1.1 A, 1.5 A, 2.0 A, 3.0 A
    #
    ################################################################################
    #  "First tier" - improvements: -1193.42 meV to -220.60 meV
         hydro 2 p 1.8
         hydro 3 d 6.8
         hydro 3 s 5.8
    #  "Second tier" - improvements: -80.21 meV to -6.86 meV
    #     hydro 4 f 10.8
    #     hydro 3 p 5.8
    #     hydro 1 s 0.8
    #     hydro 5 g 16
    #     hydro 3 d 4.9
    #  "Third tier" - improvements: -4.29 meV to -0.53 meV
    #     hydro 3 s 16
    #     ionic 2 p auto
    #     hydro 3 d 6.6
    #     hydro 4 f 11.6
    #  "Fourth tier" - improvements: -0.75 meV to -0.25 meV
    #     hydro 2 p 4.5
    #     hydro 2 s 2.4
    #     hydro 5 g 14.4
    #     hydro 4 d 14.4
    #     hydro 4 f 16.8
    # Further basis functions - -0.21 meV and below
    #     hydro 3 p 14.8
    #     hydro 3 s 4.4
    #     hydro 3 d 19.6
    #     hydro 5 g 12.8
    ################################################################################
    #
    #  FHI-aims code project
    #  VB, Fritz-Haber Institut, 2009
    #
    #  Suggested "light" defaults for O atom (to be pasted into control.in file)
    #  Be sure to double-check any results obtained with these settings for post-processing,
    #  e.g., with the "tight" defaults and larger basis sets.
    #
    ################################################################################
      species        O
    #     global species definitions
        nucleus             8
        mass                15.9994
    #
        l_hartree           4
    #
        cut_pot             3.5  1.5  1.0
        basis_dep_cutoff    1e-4
    #
        radial_base         36 5.0
        radial_multiplier   1
         angular_grids specified
          division   0.2659   50
          division   0.4451  110
          division   0.6052  194
          division   0.7543  302
    #      division   0.8014  434
    #      division   0.8507  590
    #      division   0.8762  770
    #      division   0.9023  974
    #      division   1.2339 1202
    #      outer_grid 974
          outer_grid 302
    ################################################################################
    #
    #  Definition of "minimal" basis
    #
    ################################################################################
    #     valence basis states
        valence      2  s   2.
        valence      2  p   4.
    #     ion occupancy
        ion_occ      2  s   1.
        ion_occ      2  p   3.
    ################################################################################
    #
    #  Suggested additional basis functions. For production calculations,
    #  uncomment them one after another (the most important basis functions are
    #  listed first).
    #
    #  Constructed for dimers: 1.0 A, 1.208 A, 1.5 A, 2.0 A, 3.0 A
    #
    ################################################################################
    #  "First tier" - improvements: -699.05 meV to -159.38 meV
         hydro 2 p 1.8
         hydro 3 d 7.6
         hydro 3 s 6.4
    #  "Second tier" - improvements: -49.91 meV to -5.39 meV
    #     hydro 4 f 11.6
    #     hydro 3 p 6.2
    #     hydro 3 d 5.6
    #     hydro 5 g 17.6
    #     hydro 1 s 0.75
    #  "Third tier" - improvements: -2.83 meV to -0.50 meV
    #     ionic 2 p auto
    #     hydro 4 f 10.8
    #     hydro 4 d 4.7
    #     hydro 2 s 6.8
    #  "Fourth tier" - improvements: -0.40 meV to -0.12 meV
    #     hydro 3 p 5
    #     hydro 3 s 3.3
    #     hydro 5 g 15.6
    #     hydro 4 f 17.6
    #     hydro 4 d 14
    # Further basis functions - -0.08 meV and below
    #     hydro 3 s 2.1
    #     hydro 4 d 11.6
    #     hydro 3 p 16
    #     hydro 2 s 17.2
  
    ################################################################################
    #
    #  FHI-aims code project
    #  VB, Fritz-Haber Institut, 2009
    #
    #  Suggested "light" defaults for S atom (to be pasted into control.in file)
    #  Be sure to double-check any results obtained with these settings for post-processing,
    #  e.g., with the "tight" defaults and larger basis sets.
    #
    ################################################################################
      species        S
    #     global species definitions
        nucleus             16
        mass                32.065
    #
        l_hartree           4
    #
        cut_pot             3.5          1.5  1.0
        basis_dep_cutoff    1e-4
    #
        radial_base         44 5.0
        radial_multiplier   1
        angular_grids       specified
          division   0.4665  110
          division   0.5810  194
          division   0.7139  302
    #      division   0.8274  434
    #      division   0.9105  590
    #      division   1.0975  770
    #      division   1.2028  974
    #      outer_grid  974
          outer_grid  302
    ################################################################################
    #
    #  Definition of "minimal" basis
    #
    ################################################################################
    #     valence basis states
        valence      3  s   2.
        valence      3  p   4.
    #     ion occupancy
        ion_occ      3  s   1.
        ion_occ      3  p   3.
    ################################################################################
    #
    #  Suggested additional basis functions. For production calculations,
    #  uncomment them one after another (the most important basis functions are
    #  listed first).
    #
    #  Constructed for dimers: 1.6 A, 1.9 A, 2.5 A, 3.25 A, 4.0 A
    #
    ################################################################################
    #  "First tier" - improvements: -652.81 meV to -45.53 meV
         ionic 3 d auto
         hydro 2 p 1.8
    #     hydro 4 f 7
         ionic 3 s auto
    #  "Second tier" - improvements: -30.20 meV to -1.74 meV
    #     hydro 4 d 6.2
    #     hydro 5 g 10.8
    #     hydro 4 p 4.9
    #     hydro 5 f 10
    #     hydro 1 s 0.8
    #  "Third tier" - improvements: -1.04 meV to -0.20 meV
    #     hydro 3 d 3.9
    #     hydro 3 d 2.7
    #     hydro 5 g 12
    #     hydro 4 p 10.4
    #     hydro 5 f 12.4
    #     hydro 2 s 1.9
    #  "Fourth tier" - improvements: -0.35 meV to -0.06 meV
    #     hydro 4 d 10.4
    #     hydro 4 p 7.2
    #     hydro 4 d 10
    #     hydro 5 g 19.2
    #     hydro 4 s 12
  
  
  ################################################################################
  #
  #  FHI-aims code project
  #  VB, Fritz-Haber Institut, 2009
  #
  #  Suggested "light" defaults for Cl atom (to be pasted into control.in file)
  #  Be sure to double-check any results obtained with these settings for post-processing,
  #  e.g., with the "tight" defaults and larger basis sets.
  #
  ################################################################################
    species        Cl
  #     global species definitions
      nucleus             17
      mass                35.453
  #
      l_hartree           4
  #
      cut_pot             3.5          1.5  1.0
      basis_dep_cutoff    1e-4
  #
      radial_base         45 5.0
      radial_multiplier   1
      angular_grids       specified
        division   0.4412  110
        division   0.5489  194
        division   0.6734  302
  #      division   0.7794  434
  #      division   0.9402  590
  #      division   1.0779  770
  #      division   1.1792  974
  #      outer_grid  974
        outer_grid  302
  ################################################################################
  #
  #  Definition of "minimal" basis
  #
  ################################################################################
  #     valence basis states
      valence      3  s   2.
      valence      3  p   5.
  #     ion occupancy
      ion_occ      3  s   1.
      ion_occ      3  p   4.
  ################################################################################
  #
  #  Suggested additional basis functions. For production calculations,
  #  uncomment them one after another (the most important basis functions are
  #  listed first).
  #
  #  Constructed for dimers: 1.65 A, 2.0 A, 2.5 A, 3.25 A, 4.0 A
  #
  ################################################################################
  #  "First tier" - improvements: -429.57 meV to -15.03 meV
       ionic 3 d auto
       hydro 2 p 1.9
  #     hydro 4 f 7.4
       ionic 3 s auto
  #     hydro 5 g 10.4
  #  "Second tier" - improvements: -7.84 meV to -0.48 meV
  #     hydro 3 d 3.3
  #     hydro 5 f 9.8
  #     hydro 1 s 0.75
  #     hydro 5 g 11.2
  #     hydro 4 p 10.4
  #  "Third tier" - improvements: -1.00 meV to -0.12 meV
  #     hydro 4 d 12.8
  #     hydro 4 f 4.6
  #     hydro 4 d 10.8
  #     hydro 2 s 1.8
  #     hydro 3 p 3
  #  Further functions that fell out - improvements: -0.10 meV and below
  #     hydro 5 f 14.4
  #     hydro 4 s 12.8
  #     hydro 3 d 11.6
  #     hydro 4 s 4.1
  ################################################################################
  #
  #  FHI-aims code project
  #  VB, Fritz-Haber Institut, 2009
  #
  #  Suggested "light" defaults for Br atom (to be pasted into control.in file)
  #  Be sure to double-check any results obtained with these settings for post-processing,
  #  e.g., with the "tight" defaults and larger basis sets.
  #
  ################################################################################
    species        Br
  #     global species definitions
      nucleus             35
      mass                79.904
  #
      l_hartree           4
  #
      cut_pot             3.5          1.5  1.0
      basis_dep_cutoff    1e-4
  #
      radial_base         56 5.0
      radial_multiplier   1
      angular_grids       specified
        division   0.0871  110
        division   0.1400  194
        division   0.7896  302
  #      division   0.8837  434
  #      division   0.9869  590
  #      division   1.0613  770
  #      division   2.6835  974
  #      outer_grid  974
        outer_grid  302
  ################################################################################
  #
  #  Definition of "minimal" basis
  #
  ################################################################################
  #     valence basis states
      valence      4  s   2.
      valence      4  p   5.
      valence      3  d  10.
  #     ion occupancy
      ion_occ      4  s   1.
      ion_occ      4  p   4.
      ion_occ      3  d  10.
  ################################################################################
  #
  #  Suggested additional basis functions. For production calculations,
  #  uncomment them one after another (the most important basis functions are
  #  listed first).
  #
  #  Constructed for dimers: 1.90 A, 2.25 A, 2.75 A, 3.25 A, 4.00 A
  #
  ################################################################################
  #  "First tier" - improvements: -247.24 meV to -20.97 meV
       hydro 3 d 4.6
       hydro 2 p 1.7
  #     hydro 4 f 7.6
       ionic 4 s auto
  #  "Second tier" - improvements: -9.01 meV to -0.73 meV
  #     hydro 5 g 10.4
  #     hydro 3 d 4.1
  #     hydro 6 h 14.8
  #     hydro 4 p 4.7
  #     hydro 1 s 0.7
  #     hydro 4 f 12.4
  #  "Third tier" - improvements: -0.26 meV and below
  #     hydro 5 f 14.8
  #     hydro 5 d 7.8
  #     hydro 5 g 14.4
  #     ionic 4 p auto
  #     hydro 3 s 3.2
  #  "Fourth tier" - improvements: -0.09 meV and below
  #     hydro 5 f 25.6
  #     hydro 5 d 11.2
  #     hydro 3 p 3.9
  #     hydro 6 h 16.8
  #     hydro 5 g 13.2
  #     hydro 5 s 5.4   ################################################################################
  #
  #  FHI-aims code project
  #  VB, Fritz-Haber Institut, 2009
  #
  #  Suggested "light" defaults for F atom (to be pasted into control.in file)
  #  Be sure to double-check any results obtained with these settings for post-processing,
  #  e.g., with the "tight" defaults and larger basis sets.
  #
  ################################################################################
    species        F
  #     global species definitions
      nucleus             9
      mass                18.9984032
  #
      l_hartree           4
  #
      cut_pot             3.5  1.5  1.0
      basis_dep_cutoff    1e-4
  #
      radial_base         37 5.0
      radial_multiplier   1
      angular_grids specified
        division   0.4014  110
        division   0.5291  194
        division   0.6019  302
  #      division   0.6814  434
  #      division   0.7989  590
  #      division   0.8965  770
  #      division   1.3427  974
  #      outer_grid   974
        outer_grid   302
  ################################################################################
  #
  #  Definition of "minimal" basis
  #
  ################################################################################
  #     valence basis states
      valence      2  s   2.
      valence      2  p   5.
  #     ion occupancy
      ion_occ      2  s   1.
      ion_occ      2  p   4.
  ################################################################################
  #
  #  Suggested additional basis functions. For production calculations,
  #  uncomment them one after another (the most important basis functions are
  #  listed first).
  #
  #  Constructed for dimers: 1.2 A, 1.418 A, 1.75 A, 2.25 A, 3.25 A
  #
  ################################################################################
  #  "First tier" - improvements: -149.44 meV to -45.88 meV
       hydro 2 p 1.7
       hydro 3 d 7.4
       hydro 3 s 6.8
  #  "Second tier" - improvements: -12.96 meV to -1.56 meV
  #     hydro 4 f 11.2
  #     ionic 2 p auto
  #     hydro 1 s 0.75
  #     hydro 4 d 8.8
  #     hydro 5 g 16.8
  #  "Third tier" - improvements: -0.58 meV to -0.05 meV
  #     hydro 3 p 6.2
  #     hydro 3 s 3.2
  #     hydro 4 f 9.6
  #     hydro 3 s 19.6
  #     hydro 4 d 8.6
  #     hydro 5 g 14.4
  # Further basis functions: -0.05 meV and below
  #     hydro 3 p 4.2
  
  -----------------------------------------------------------------------
  Completed first pass over input file control.in .
  -----------------------------------------------------------------------
  
  
  -----------------------------------------------------------------------
  Parsing geometry.in (first pass over file, find array dimensions only).
  The contents of geometry.in will be repeated verbatim below
  unless switched off by setting 'verbatim_writeout .false.' .
  in the first line of geometry.in .
  -----------------------------------------------------------------------
  
  lattice_vector 2.945184 0.0 0.0
  lattice_vector 5.934918832785079e-16 9.692458 0.0
  lattice_vector 5.934918832785079e-16 5.934918832785079e-16 9.692458
  atom 1.43956 6.05745 0.69932 C
  atom 1.43956 6.05745 -0.69932 C
  atom 1.43956 4.84623 -1.39867 C
  atom 1.43956 3.63501 -0.69932 C
  atom 1.43956 3.63501 0.69932 C
  atom 1.43956 4.84623 1.39867 C
  atom 1.43956 7.00268 1.24496 H
  atom 1.43956 7.00267 -1.24496 H
  atom 1.43956 4.84623 -2.49008 H
  atom 1.43956 2.68978 -1.24496 H
  atom 1.43956 2.68978 1.24496 H
  atom 1.43956 4.84623 2.49008 H
  atom 1.43956 -0.69932 6.05745 C
  atom 1.43956 0.69932 6.05745 C
  atom 1.43956 1.39867 4.84623 C
  atom 1.43956 0.69932 3.63501 C
  atom 1.43956 -0.69932 3.63501 C
  atom 1.43956 -1.39867 4.84623 C
  atom 1.43956 -1.24496 7.00267 H
  atom 1.43956 1.24496 7.00267 H
  atom 1.43956 2.49008 4.84623 H
  atom 1.43956 1.24496 2.68978 H
  atom 1.43956 -1.24496 2.68978 H
  atom 1.43956 -2.49008 4.84623 H
  
  -----------------------------------------------------------------------
  Completed first pass over input file geometry.in .
  -----------------------------------------------------------------------
  

  Basic array size parameters:
  | Number of species                 :        8
  | Number of atoms                   :       24
  | Number of lattice vectors         :        3
  | Max. basis fn. angular momentum   :        2
  | Max. atomic/ionic basis occupied n:        4
  | Max. number of basis fn. types    :        3
  | Max. radial fns per species/type  :        8
  | Max. logarithmic grid size        :     1421
  | Max. radial integration grid size :       56
  | Max. angular integration grid size:      302
  | Max. angular grid division number :        8
  | Radial grid for Hartree potential :     1421
  | Number of spin channels           :        1

------------------------------------------------------------
          Reading file control.in.
------------------------------------------------------------
  XC: Using PBE gradient-corrected functionals.
  Spin treatment: No spin polarisation.
  Charge =   0.000000E+00: Neutral system requested explicitly.
  Occupation type: Gaussian broadening, width =   0.100000E-01 eV.
  Using pulay charge density mixing.
  Pulay mixing - number of memorized iterations:   10
  Charge density mixing - mixing parameter:     0.5000
  Convergence accuracy of self-consistent charge density:  0.1000E-03
  Convergence accuracy of sum of eigenvalues:  0.1000E-01
  Convergence accuracy of total energy:  0.1000E-05
  Maximum number of s.-c. iterations  :  1000
  Postprocessing will be performed even if SCF does not converge.
  Found k-point grid:         3         3         3
  Kohn-Sham electronic structure solved by the ELSI library.
 
  Reading configuration options for species H                   .
  | Found nuclear charge :   1.0000
  | Found atomic mass :    1.00794000000000      amu
  | Found l_max for Hartree potential  :   4
  | Found cutoff potl. onset [A], width [A], scale factor :    3.50000    1.50000    1.00000
  | Threshold for basis-dependent cutoff potential is   0.100000E-03
  | Found data for basic radial integration grid :    24 points, outermost radius =    5.000 A
  | Found multiplier for basic radial grid :   1
  | Found angular grid specification: user-specified.
  | Specified grid contains     5 separate shells.
  | Check grid settings after all constraints further below.
  | Found free-atom valence shell :  1 s   1.000
  | Found free-ion valence shell :  1 s   0.500
  | Found hydrogenic basis function :  2 s   2.100
  | Found hydrogenic basis function :  2 p   3.500
  Species H                   : Missing cutoff potential type.
  Defaulting to exp(1/x)/(1-x)^2 type cutoff potential.
  Species H : No 'logarithmic' tag. Using default grid for free atom:
  | Default logarithmic grid data [bohr] : 0.1000E-03 0.1000E+03 0.1012E+01
  Species H : On-site basis accuracy parameter (for Gram-Schmidt orthonormalisation) not specified.
  Using default value basis_acc =  0.1000000E-03.
  Species H                   : Using default innermost maximum threshold i_radial=  2 for radial functions.
  Species H                   : Default cutoff onset for free atom density etc. : 0.35000000E+01 AA.
  Species H                   : Basic radial grid will be enhanced according to radial_multiplier =   1, to contain    24 grid points.
 
  Reading configuration options for species C                   .
  | Found nuclear charge :   6.0000
  | Found atomic mass :    12.0107000000000      amu
  | Found l_max for Hartree potential  :   4
  | Found cutoff potl. onset [A], width [A], scale factor :    3.50000    1.50000    1.00000
  | Threshold for basis-dependent cutoff potential is   0.100000E-03
  | Found data for basic radial integration grid :    34 points, outermost radius =    5.000 A
  | Found multiplier for basic radial grid :   1
  | Found angular grid specification: user-specified.
  | Specified grid contains     5 separate shells.
  | Check grid settings after all constraints further below.
  | Found free-atom valence shell :  2 s   2.000
  | Found free-atom valence shell :  2 p   2.000
  | Found free-ion valence shell :  2 s   1.000
  | Found free-ion valence shell :  2 p   1.000
  | Found hydrogenic basis function :  2 p   1.700
  | Found hydrogenic basis function :  3 d   6.000
  | Found hydrogenic basis function :  2 s   4.900
  Species C                   : Missing cutoff potential type.
  Defaulting to exp(1/x)/(1-x)^2 type cutoff potential.
  Species C : No 'logarithmic' tag. Using default grid for free atom:
  | Default logarithmic grid data [bohr] : 0.1000E-03 0.1000E+03 0.1012E+01
  Species C : On-site basis accuracy parameter (for Gram-Schmidt orthonormalisation) not specified.
  Using default value basis_acc =  0.1000000E-03.
  Species C                   : Using default innermost maximum threshold i_radial=  2 for radial functions.
  Species C                   : Default cutoff onset for free atom density etc. : 0.35000000E+01 AA.
  Species C                   : Basic radial grid will be enhanced according to radial_multiplier =   1, to contain    34 grid points.
 
  Reading configuration options for species N                   .
  | Found nuclear charge :   7.0000
  | Found atomic mass :    14.0067000000000      amu
  | Found l_max for Hartree potential  :   4
  | Found cutoff potl. onset [A], width [A], scale factor :    3.50000    1.50000    1.00000
  | Threshold for basis-dependent cutoff potential is   0.100000E-03
  | Found data for basic radial integration grid :    35 points, outermost radius =    5.000 A
  | Found multiplier for basic radial grid :   1
  | Found angular grid specification: user-specified.
  | Specified grid contains     5 separate shells.
  | Check grid settings after all constraints further below.
  | Found free-atom valence shell :  2 s   2.000
  | Found free-atom valence shell :  2 p   3.000
  | Found free-ion valence shell :  2 s   1.000
  | Found free-ion valence shell :  2 p   2.000
  | Found hydrogenic basis function :  2 p   1.800
  | Found hydrogenic basis function :  3 d   6.800
  | Found hydrogenic basis function :  3 s   5.800
  Species N                   : Missing cutoff potential type.
  Defaulting to exp(1/x)/(1-x)^2 type cutoff potential.
  Species N : No 'logarithmic' tag. Using default grid for free atom:
  | Default logarithmic grid data [bohr] : 0.1000E-03 0.1000E+03 0.1012E+01
  Species N : On-site basis accuracy parameter (for Gram-Schmidt orthonormalisation) not specified.
  Using default value basis_acc =  0.1000000E-03.
  Species N                   : Using default innermost maximum threshold i_radial=  2 for radial functions.
  Species N                   : Default cutoff onset for free atom density etc. : 0.35000000E+01 AA.
  Species N                   : Basic radial grid will be enhanced according to radial_multiplier =   1, to contain    35 grid points.
 
  Reading configuration options for species O                   .
  | Found nuclear charge :   8.0000
  | Found atomic mass :    15.9994000000000      amu
  | Found l_max for Hartree potential  :   4
  | Found cutoff potl. onset [A], width [A], scale factor :    3.50000    1.50000    1.00000
  | Threshold for basis-dependent cutoff potential is   0.100000E-03
  | Found data for basic radial integration grid :    36 points, outermost radius =    5.000 A
  | Found multiplier for basic radial grid :   1
  | Found angular grid specification: user-specified.
  | Specified grid contains     5 separate shells.
  | Check grid settings after all constraints further below.
  | Found free-atom valence shell :  2 s   2.000
  | Found free-atom valence shell :  2 p   4.000
  | Found free-ion valence shell :  2 s   1.000
  | Found free-ion valence shell :  2 p   3.000
  | Found hydrogenic basis function :  2 p   1.800
  | Found hydrogenic basis function :  3 d   7.600
  | Found hydrogenic basis function :  3 s   6.400
  Species O                   : Missing cutoff potential type.
  Defaulting to exp(1/x)/(1-x)^2 type cutoff potential.
  Species O : No 'logarithmic' tag. Using default grid for free atom:
  | Default logarithmic grid data [bohr] : 0.1000E-03 0.1000E+03 0.1012E+01
  Species O : On-site basis accuracy parameter (for Gram-Schmidt orthonormalisation) not specified.
  Using default value basis_acc =  0.1000000E-03.
  Species O                   : Using default innermost maximum threshold i_radial=  2 for radial functions.
  Species O                   : Default cutoff onset for free atom density etc. : 0.35000000E+01 AA.
  Species O                   : Basic radial grid will be enhanced according to radial_multiplier =   1, to contain    36 grid points.
 
  Reading configuration options for species S                   .
  | Found nuclear charge :  16.0000
  | Found atomic mass :    32.0650000000000      amu
  | Found l_max for Hartree potential  :   4
  | Found cutoff potl. onset [A], width [A], scale factor :    3.50000    1.50000    1.00000
  | Threshold for basis-dependent cutoff potential is   0.100000E-03
  | Found data for basic radial integration grid :    44 points, outermost radius =    5.000 A
  | Found multiplier for basic radial grid :   1
  | Found angular grid specification: user-specified.
  | Specified grid contains     4 separate shells.
  | Check grid settings after all constraints further below.
  | Found free-atom valence shell :  3 s   2.000
  | Found free-atom valence shell :  3 p   4.000
  | Found free-ion valence shell :  3 s   1.000
  | Found free-ion valence shell :  3 p   3.000
  | Found ionic basis function :  3 d , default cutoff radius.
  | Found hydrogenic basis function :  2 p   1.800
  | Found ionic basis function :  3 s , default cutoff radius.
  Species S                   : Missing cutoff potential type.
  Defaulting to exp(1/x)/(1-x)^2 type cutoff potential.
  Species S : No 'logarithmic' tag. Using default grid for free atom:
  | Default logarithmic grid data [bohr] : 0.1000E-03 0.1000E+03 0.1012E+01
  | Will include ionic basis functions of  2.0-fold positive S                    ion.
  Species S : On-site basis accuracy parameter (for Gram-Schmidt orthonormalisation) not specified.
  Using default value basis_acc =  0.1000000E-03.
  Species S                   : Using default innermost maximum threshold i_radial=  2 for radial functions.
  Species S                   : Default cutoff onset for free atom density etc. : 0.35000000E+01 AA.
  Species S                   : Basic radial grid will be enhanced according to radial_multiplier =   1, to contain    44 grid points.
 
  Reading configuration options for species Cl                  .
  | Found nuclear charge :  17.0000
  | Found atomic mass :    35.4530000000000      amu
  | Found l_max for Hartree potential  :   4
  | Found cutoff potl. onset [A], width [A], scale factor :    3.50000    1.50000    1.00000
  | Threshold for basis-dependent cutoff potential is   0.100000E-03
  | Found data for basic radial integration grid :    45 points, outermost radius =    5.000 A
  | Found multiplier for basic radial grid :   1
  | Found angular grid specification: user-specified.
  | Specified grid contains     4 separate shells.
  | Check grid settings after all constraints further below.
  | Found free-atom valence shell :  3 s   2.000
  | Found free-atom valence shell :  3 p   5.000
  | Found free-ion valence shell :  3 s   1.000
  | Found free-ion valence shell :  3 p   4.000
  | Found ionic basis function :  3 d , default cutoff radius.
  | Found hydrogenic basis function :  2 p   1.900
  | Found ionic basis function :  3 s , default cutoff radius.
  Species Cl                  : Missing cutoff potential type.
  Defaulting to exp(1/x)/(1-x)^2 type cutoff potential.
  Species Cl: No 'logarithmic' tag. Using default grid for free atom:
  | Default logarithmic grid data [bohr] : 0.1000E-03 0.1000E+03 0.1012E+01
  | Will include ionic basis functions of  2.0-fold positive Cl                   ion.
  Species Cl: On-site basis accuracy parameter (for Gram-Schmidt orthonormalisation) not specified.
  Using default value basis_acc =  0.1000000E-03.
  Species Cl                  : Using default innermost maximum threshold i_radial=  2 for radial functions.
  Species Cl                  : Default cutoff onset for free atom density etc. : 0.35000000E+01 AA.
  Species Cl                  : Basic radial grid will be enhanced according to radial_multiplier =   1, to contain    45 grid points.
 
  Reading configuration options for species Br                  .
  | Found nuclear charge :  35.0000
  | Found atomic mass :    79.9040000000000      amu
  | Found l_max for Hartree potential  :   4
  | Found cutoff potl. onset [A], width [A], scale factor :    3.50000    1.50000    1.00000
  | Threshold for basis-dependent cutoff potential is   0.100000E-03
  | Found data for basic radial integration grid :    56 points, outermost radius =    5.000 A
  | Found multiplier for basic radial grid :   1
  | Found angular grid specification: user-specified.
  | Specified grid contains     4 separate shells.
  | Check grid settings after all constraints further below.
  | Found free-atom valence shell :  4 s   2.000
  | Found free-atom valence shell :  4 p   5.000
  | Found free-atom valence shell :  3 d  10.000
  | Found free-ion valence shell :  4 s   1.000
  | Found free-ion valence shell :  4 p   4.000
  | Found free-ion valence shell :  3 d  10.000
  | Found hydrogenic basis function :  3 d   4.600
  | Found hydrogenic basis function :  2 p   1.700
  | Found ionic basis function :  4 s , default cutoff radius.
  Species Br                  : Missing cutoff potential type.
  Defaulting to exp(1/x)/(1-x)^2 type cutoff potential.
  Species Br: No 'logarithmic' tag. Using default grid for free atom:
  | Default logarithmic grid data [bohr] : 0.1000E-03 0.1000E+03 0.1012E+01
  | Will include ionic basis functions of  2.0-fold positive Br                   ion.
  Species Br: On-site basis accuracy parameter (for Gram-Schmidt orthonormalisation) not specified.
  Using default value basis_acc =  0.1000000E-03.
  Species Br                  : Using default innermost maximum threshold i_radial=  2 for radial functions.
  Species Br                  : Default cutoff onset for free atom density etc. : 0.35000000E+01 AA.
  Species Br                  : Basic radial grid will be enhanced according to radial_multiplier =   1, to contain    56 grid points.
 
  Reading configuration options for species F                   .
  | Found nuclear charge :   9.0000
  | Found atomic mass :    18.9984032000000      amu
  | Found l_max for Hartree potential  :   4
  | Found cutoff potl. onset [A], width [A], scale factor :    3.50000    1.50000    1.00000
  | Threshold for basis-dependent cutoff potential is   0.100000E-03
  | Found data for basic radial integration grid :    37 points, outermost radius =    5.000 A
  | Found multiplier for basic radial grid :   1
  | Found angular grid specification: user-specified.
  | Specified grid contains     4 separate shells.
  | Check grid settings after all constraints further below.
  | Found free-atom valence shell :  2 s   2.000
  | Found free-atom valence shell :  2 p   5.000
  | Found free-ion valence shell :  2 s   1.000
  | Found free-ion valence shell :  2 p   4.000
  | Found hydrogenic basis function :  2 p   1.700
  | Found hydrogenic basis function :  3 d   7.400
  | Found hydrogenic basis function :  3 s   6.800
  Species F                   : Missing cutoff potential type.
  Defaulting to exp(1/x)/(1-x)^2 type cutoff potential.
  Species F : No 'logarithmic' tag. Using default grid for free atom:
  | Default logarithmic grid data [bohr] : 0.1000E-03 0.1000E+03 0.1012E+01
  Species F : On-site basis accuracy parameter (for Gram-Schmidt orthonormalisation) not specified.
  Using default value basis_acc =  0.1000000E-03.
  Species F                   : Using default innermost maximum threshold i_radial=  2 for radial functions.
  Species F                   : Default cutoff onset for free atom density etc. : 0.35000000E+01 AA.
  Species F                   : Basic radial grid will be enhanced according to radial_multiplier =   1, to contain    37 grid points.
 
  Finished reading input file 'control.in'. Consistency checks are next.
 
  MPI_IN_PLACE appears to work with this MPI implementation.
  | Keeping use_mpi_in_place .true. (see manual).
  Target number of points in a grid batch is not set. Defaulting to  100
  Method for grid partitioning is not set. Defaulting to parallel hash+maxmin partitioning.
  Batch size limit is not set. Defaulting to    200
  By default, will store active basis functions for each batch.
  If in need of memory, prune_basis_once .false. can be used to disable this option.
  communication_type for Hartree potential was not specified.
  Defaulting to calc_hartree .
  Pulay mixer: Number of initial linear mixing iterations not set.
  Defaulting to    0 iterations.
  Work space size for distributed Hartree potential not set.
  Defaulting to   0.200000E+03 MB.
  Algorithm-dependent basis array size parameters:
  | n_max_pulay                         :       10
  Presetting      1001 iterations before the initial mixing cycle
  is restarted anyway using the sc_init_iter criterion / keyword.
  Presetting a factor      1.000 between actual scf density residual
  and density convergence criterion sc_accuracy_rho below which sc_init_iter
  takes no effect.
  Calculation of forces was not defined in control.in. No forces will be calculated.
  Geometry relaxation not requested: no relaxation will be performed.
  No accuracy limit for integral partition fn. given. Defaulting to  0.1000E-14.
  No threshold value for u(r) in integrations given. Defaulting to  0.1000E-05.
  No accuracy for occupation numbers given. Defaulting to  0.1000E-12.
  No threshold value for occupation numbers given. Defaulting to  0.0000E+00.
  No accuracy for fermi level given. Defaulting to  0.1000E-19.
  Maximum # of iterations to find E_F not set. Defaulting to  200.
 * You have    27 k-points in your system, but only     4 MPI-tasks available.
 * In this case using ScaLAPACK is not necessary / supported.
 * Switching to LAPACK (via ELSI) instead.
  Will not use alltoall communication since running on < 1024 CPUs.
  Threshold for basis singularities not set.
  Default threshold for basis singularities:  0.1000E-04
  partition_type (choice of integration weights) for integrals was not specified.
  | Using a version of the partition function of Stratmann and coworkers ('stratmann_sparse').
  | At each grid point, the set of atoms used to build the partition table is smoothly restricted to
  | only those atoms whose free-atom density would be non-zero at that grid point.
  Partitioning for Hartree potential was not defined. Using partition_type for integrals.
  | Adjusted default value of keyword multip_moments_threshold to:       0.10000000E-11
  | This value may affect high angular momentum components of the Hartree potential in periodic systems.
  Angular momentum expansion for Kerker preconditioner not set explicitly.
  | Using default value of   0
  No explicit requirement for turning off preconditioner.
  | By default, it will be turned off when the charge convergence reaches
  | sc_accuracy_rho  =   0.100000E-03
  | sc_accuracy_eev  =   0.100000E-01
  | sc_accuracy_etot =   0.100000E-05
  No special mixing parameter while Kerker preconditioner is on.
  Using default: charge_mix_param =     0.5000.
  No q(lm)/r^(l+1) cutoff set for long-range Hartree potential.
  | Using default value of  0.100000E-09 .
  | Verify using the multipole_threshold keyword.
  Defaulting to new monopole extrapolation.
  Density update method: automatic selection selected.
  Using density matrix based charge density update.
  Using density matrix based charge density update.
  Using packed matrix style: index .
  Defaulting to use time-reversal symmetry for k-point grid.
  Using the following vdw_convergence_threshold for supercell sums
  over the Tkatchenko-Scheffler correction:  0.100000E-05 eV.
------------------------------------------------------------


------------------------------------------------------------
          Reading geometry description geometry.in.
------------------------------------------------------------
 * Warning! You did not set the 'relativistic' flag in input file 'control.in'.
 * Since you are not attempting to treat any elements beyond Ca(Z=20), FHI-aims
 * will default to 'relativistic none'.
 * You must ensure that this is really what you want!!
 * For example, DO NOT compute total-energy differences between results from
 * different settings of the 'relativistic' flag.
  Input structure read successfully.
  The structure contains       24 atoms,  and a total of         84.000 electrons.

  Input geometry:
  | Unit cell:
  |        2.94518400        0.00000000        0.00000000
  |        0.00000000        9.69245800        0.00000000
  |        0.00000000        0.00000000        9.69245800
  | Atomic structure:
  |       Atom                x [A]            y [A]            z [A]
  |    1: Species C             1.43956000        6.05745000        0.69932000
  |    2: Species C             1.43956000        6.05745000       -0.69932000
  |    3: Species C             1.43956000        4.84623000       -1.39867000
  |    4: Species C             1.43956000        3.63501000       -0.69932000
  |    5: Species C             1.43956000        3.63501000        0.69932000
  |    6: Species C             1.43956000        4.84623000        1.39867000
  |    7: Species H             1.43956000        7.00268000        1.24496000
  |    8: Species H             1.43956000        7.00267000       -1.24496000
  |    9: Species H             1.43956000        4.84623000       -2.49008000
  |   10: Species H             1.43956000        2.68978000       -1.24496000
  |   11: Species H             1.43956000        2.68978000        1.24496000
  |   12: Species H             1.43956000        4.84623000        2.49008000
  |   13: Species C             1.43956000       -0.69932000        6.05745000
  |   14: Species C             1.43956000        0.69932000        6.05745000
  |   15: Species C             1.43956000        1.39867000        4.84623000
  |   16: Species C             1.43956000        0.69932000        3.63501000
  |   17: Species C             1.43956000       -0.69932000        3.63501000
  |   18: Species C             1.43956000       -1.39867000        4.84623000
  |   19: Species H             1.43956000       -1.24496000        7.00267000
  |   20: Species H             1.43956000        1.24496000        7.00267000
  |   21: Species H             1.43956000        2.49008000        4.84623000
  |   22: Species H             1.43956000        1.24496000        2.68978000
  |   23: Species H             1.43956000       -1.24496000        2.68978000
  |   24: Species H             1.43956000       -2.49008000        4.84623000

  Lattice parameters for 3D lattice (in Angstroms) :     2.945184    9.692458    9.692458
  Angle(s) between unit vectors (in degrees)       :    90.000000   90.000000   90.000000

  |

  | The smallest distance between any two atoms is         1.09140453 AA.
  |
  | The first atom of this pair is atom number                      2 .
  | The second atom of this pair is atom number                     8 .
  | Wigner-Seitz cell of the first atom image           0     0     0 .
  | (The Wigner-Seitz cell of the second atom is 0 0 0  by definition.)

  Symmetry information by spglib:
  | Precision set to  0.1E-04
  | Number of Operations  : 2
  | Space group           : 6
  | International         : Pm   V
  | Schoenflies           : Cs^1

  Quantities derived from the lattice vectors:
  | Reciprocal lattice vector 1:  2.133376 -0.000000 -0.000000
  | Reciprocal lattice vector 2:  0.000000  0.648255  0.000000
  | Reciprocal lattice vector 3:  0.000000  0.000000  0.648255
  | Unit cell volume                               :   0.276682E+03  A^3

  Range separation radius for Ewald summation (hartree_convergence_parameter):      3.15180341 bohr.

  Fractional coordinates:
                         L1                L2                L3
       atom_frac         0.48878440        0.62496531        0.07215094  C
       atom_frac         0.48878440        0.62496531       -0.07215094  C
       atom_frac         0.48878440        0.50000010       -0.14430498  C
       atom_frac         0.48878440        0.37503490       -0.07215094  C
       atom_frac         0.48878440        0.37503490        0.07215094  C
       atom_frac         0.48878440        0.50000010        0.14430498  C
       atom_frac         0.48878440        0.72248753        0.12844626  H
       atom_frac         0.48878440        0.72248649       -0.12844626  H
       atom_frac         0.48878440        0.50000010       -0.25690903  H
       atom_frac         0.48878440        0.27751268       -0.12844626  H
       atom_frac         0.48878440        0.27751268        0.12844626  H
       atom_frac         0.48878440        0.50000010        0.25690903  H
       atom_frac         0.48878440       -0.07215094        0.62496531  C
       atom_frac         0.48878440        0.07215094        0.62496531  C
       atom_frac         0.48878440        0.14430498        0.50000010  C
       atom_frac         0.48878440        0.07215094        0.37503490  C
       atom_frac         0.48878440       -0.07215094        0.37503490  C
       atom_frac         0.48878440       -0.14430498        0.50000010  C
       atom_frac         0.48878440       -0.12844626        0.72248649  H
       atom_frac         0.48878440        0.12844626        0.72248649  H
       atom_frac         0.48878440        0.25690903        0.50000010  H
       atom_frac         0.48878440        0.12844626        0.27751268  H
       atom_frac         0.48878440       -0.12844626        0.27751268  H
       atom_frac         0.48878440       -0.25690903        0.50000010  H

  Number of empty states per atom not set in control.in - providing a guess from actual geometry.
  | Total number of empty states used during s.c.f. cycle:       54
  If you use a very high smearing, use empty_states (per atom!) in control.in to increase this value.

  Structure-dependent array size parameters: 
  | Maximum number of distinct radial functions  :       54
  | Maximum number of basis functions            :      228
  | Number of Kohn-Sham states (occupied + empty):       96
------------------------------------------------------------

------------------------------------------------------------
          Preparing all fixed parts of the calculation.
------------------------------------------------------------
  Determining machine precision:
    2.225073858507201E-308
  Setting up grids for atomic and cluster calculations.

  Creating wave function, potential, and density for free atoms.

  Species: H

  List of occupied orbitals and eigenvalues:
    n    l              occ      energy [Ha]    energy [eV]
    1    0           1.0000        -0.237589        -6.4651


  Species: C

  List of occupied orbitals and eigenvalues:
    n    l              occ      energy [Ha]    energy [eV]
    1    0           2.0000       -10.038835      -273.1706
    2    0           2.0000        -0.502696       -13.6791
    2    1           2.0000        -0.191971        -5.2238


  Species: N

  List of occupied orbitals and eigenvalues:
    n    l              occ      energy [Ha]    energy [eV]
    1    0           2.0000       -14.128000      -384.4424
    2    0           2.0000        -0.681077       -18.5330
    2    1           3.0000        -0.259788        -7.0692


  Species: O

  List of occupied orbitals and eigenvalues:
    n    l              occ      energy [Ha]    energy [eV]
    1    0           2.0000       -18.898188      -514.2459
    2    0           2.0000        -0.878505       -23.9053
    2    1           4.0000        -0.331779        -9.0282


  Species: S

  List of occupied orbitals and eigenvalues:
    n    l              occ      energy [Ha]    energy [eV]
    1    0           2.0000       -88.105825     -2397.4815
    2    0           2.0000        -7.730144      -210.3479
    3    0           2.0000        -0.627748       -17.0819
    2    1           6.0000        -5.747971      -156.4103
    3    1           4.0000        -0.255786        -6.9603


  Species: Cl

  List of occupied orbitals and eigenvalues:
    n    l              occ      energy [Ha]    energy [eV]
    1    0           2.0000      -100.709620     -2740.4482
    2    0           2.0000        -9.221874      -250.9399
    3    0           2.0000        -0.753366       -20.5001
    2    1           6.0000        -7.038743      -191.5339
    3    1           5.0000        -0.315359        -8.5813


  Species: Br

  List of occupied orbitals and eigenvalues:
    n    l              occ      energy [Ha]    energy [eV]
    1    0           2.0000      -480.966333    -13087.7598
    2    0           2.0000       -61.794634     -1681.5175
    3    0           2.0000        -8.437627      -229.5995
    4    0           2.0000        -0.711761       -19.3680
    2    1           6.0000       -55.701087     -1515.7037
    3    1           6.0000        -6.306358      -171.6047
    4    1           5.0000        -0.288272        -7.8443
    3    2          10.0000        -2.509395       -68.2841


  Species: F

  List of occupied orbitals and eigenvalues:
    n    l              occ      energy [Ha]    energy [eV]
    1    0           2.0000       -24.351522      -662.6386
    2    0           2.0000        -1.095729       -29.8163
    2    1           5.0000        -0.408578       -11.1180

  Creating fixed part of basis set: Ionic, confined, hydrogenic.
 
  H                    hydrogenic:
 
  List of hydrogenic basis orbitals: 
    n    l      effective z      eigenvalue [eV]  inner max. [A]     outer max. [A]     outer radius [A]   
    2    0         2.100000       -14.9728           0.193243           1.317208           4.583499
    2    1         3.500000       -41.6669           0.602369           0.602369           3.723403
 
 
  C                    hydrogenic:
 
  List of hydrogenic basis orbitals: 
    n    l      effective z      eigenvalue [eV]  inner max. [A]     outer max. [A]     outer radius [A]   
    2    1         1.700000        -9.7616           1.230570           1.230570           4.607917
    3    2         6.000000       -54.4224           0.792453           0.792453           3.883070
    2    0         4.900000       -81.6679           0.082559           0.562749           3.078220
 
 
  N                    hydrogenic:
 
  List of hydrogenic basis orbitals: 
    n    l      effective z      eigenvalue [eV]  inner max. [A]     outer max. [A]     outer radius [A]   
    2    1         1.800000       -10.9749           1.177451           1.177451           4.573712
    3    2         6.800000       -69.9026           0.704619           0.704619           3.538137
    3    0         5.800000       -50.8545           0.067388           1.191934           4.250239
 
 
  O                    hydrogenic:
 
  List of hydrogenic basis orbitals: 
    n    l      effective z      eigenvalue [eV]  inner max. [A]     outer max. [A]     outer radius [A]   
    2    1         1.800000       -10.9749           1.164242           1.164242           4.578029
    3    2         7.600000       -87.3180           0.624125           0.624125           3.251020
    3    0         6.400000       -61.9207           0.061167           1.081902           4.001998
 
 
  S                    ion:

  List of free ionic orbitals and eigenvalues:
    n    l      energy [Ha]    energy [eV]
    1    0       -89.127201     -2425.2745
    2    0        -8.724378      -237.4024
    3    0        -1.464668       -39.8556
    2    1        -6.744348      -183.5230
    3    1        -1.048520       -28.5317


  List of ionic basis orbitals and eigenvalues:
    n    l      energy [Ha]    energy [eV]    outer radius [A]
    3    2        -0.496135       -13.5005       4.539062
    3    0        -1.464653       -39.8552       3.642502

 
  S                    hydrogenic:
 
  List of hydrogenic basis orbitals: 
    n    l      effective z      eigenvalue [eV]  inner max. [A]     outer max. [A]     outer radius [A]   
    2    1         1.800000       -10.9749           1.168531           1.168531           4.594893
 
 
  Cl                   ion:

  List of free ionic orbitals and eigenvalues:
    n    l      energy [Ha]    energy [eV]
    1    0      -101.807232     -2770.3157
    2    0       -10.290876      -280.0290
    3    0        -1.664625       -45.2967
    2    1        -8.110237      -220.6908
    3    1        -1.183915       -32.2160


  List of ionic basis orbitals and eigenvalues:
    n    l      energy [Ha]    energy [eV]    outer radius [A]
    3    2        -0.529186       -14.3999       4.541334
    3    0        -1.664610       -45.2963       3.428237

 
  Cl                   hydrogenic:
 
  List of hydrogenic basis orbitals: 
    n    l      effective z      eigenvalue [eV]  inner max. [A]     outer max. [A]     outer radius [A]   
    2    1         1.900000       -12.2492           1.113321           1.113321           4.597192
 
 
  Br                   ion:

  List of free ionic orbitals and eigenvalues:
    n    l      energy [Ha]    energy [eV]
    1    0      -481.921999    -13113.7648
    2    0       -62.739901     -1707.2396
    3    0        -9.376397      -255.1447
    4    0        -1.532483       -41.7010
    2    1       -56.647313     -1541.4518
    3    1        -7.244686      -197.1379
    4    1        -1.059367       -28.8269
    3    2        -3.445349       -93.7527


  List of ionic basis orbitals and eigenvalues:
    n    l      energy [Ha]    energy [eV]    outer radius [A]
    4    0        -1.532468       -41.7006       3.641189

 
  Br                   hydrogenic:
 
  List of hydrogenic basis orbitals: 
    n    l      effective z      eigenvalue [eV]  inner max. [A]     outer max. [A]     outer radius [A]   
    3    2         4.600000       -31.9872           1.033692           1.033692           4.537427
    2    1         1.700000        -9.7616           1.241738           1.241738           4.593237
 
 
  F                    hydrogenic:
 
  List of hydrogenic basis orbitals: 
    n    l      effective z      eigenvalue [eV]  inner max. [A]     outer max. [A]     outer radius [A]   
    2    1         1.700000        -9.7616           1.243167           1.243167           4.598524
    3    2         7.400000       -82.7828           0.642437           0.642437           3.305741
    3    0         6.800000       -69.9026           0.057798           1.022307           3.781556
 

  Adding cutoff potential to free-atom effective potential.
  Creating atomic-like basis functions for current effective potential.

  Species H                   :

  List of atomic basis orbitals and eigenvalues:
    n    l      energy [Ha]    energy [eV]    outer radius [A]
    1    0        -0.237589        -6.4651       4.527807


  Species C                   :

  List of atomic basis orbitals and eigenvalues:
    n    l      energy [Ha]    energy [eV]    outer radius [A]
    1    0       -10.038835      -273.1706       1.934409
    2    0        -0.502696       -13.6791       4.496620
    2    1        -0.191971        -5.2238       4.551928


  Species N                   :

  List of atomic basis orbitals and eigenvalues:
    n    l      energy [Ha]    energy [eV]    outer radius [A]
    1    0       -14.128000      -384.4424       1.637919
    2    0        -0.681077       -18.5330       4.463241
    2    1        -0.259788        -7.0692       4.518138


  Species O                   :

  List of atomic basis orbitals and eigenvalues:
    n    l      energy [Ha]    energy [eV]    outer radius [A]
    1    0       -18.898188      -514.2459       1.415765
    2    0        -0.878505       -23.9053       4.413171
    2    1        -0.331779        -9.0282       4.522403


  Species S                   :

  List of atomic basis orbitals and eigenvalues:
    n    l      energy [Ha]    energy [eV]    outer radius [A]
    1    0       -88.105825     -2397.4815       0.682391
    2    0        -7.730144      -210.3479       2.317169
    3    0        -0.627748       -17.0819       4.483910
    2    1        -5.747971      -156.4103       2.555240
    3    1        -0.255786        -6.9603       4.539062


  Species Cl                  :

  List of atomic basis orbitals and eigenvalues:
    n    l      energy [Ha]    energy [eV]    outer radius [A]
    1    0      -100.709620     -2740.4482       0.642251
    2    0        -9.221874      -250.9399       2.128190
    3    0        -0.753366       -20.5001       4.431645
    2    1        -7.038743      -191.5339       2.346844
    3    1        -0.315359        -8.5813       4.541334


  Species Br                  :

  List of atomic basis orbitals and eigenvalues:
    n    l      energy [Ha]    energy [eV]    outer radius [A]
    1    0      -480.966333    -13087.7598       0.304416
    2    0       -61.794634     -1681.5175       0.871088
    3    0        -8.437627      -229.5995       2.260387
    4    0        -0.711761       -19.3680       4.482294
    2    1       -55.701087     -1515.7037       0.881802
    3    1        -6.306358      -171.6047       2.554319
    4    1        -0.288272        -7.8443       4.537427
    3    2        -2.509395       -68.2841       3.641189


  Species F                   :

  List of atomic basis orbitals and eigenvalues:
    n    l      energy [Ha]    energy [eV]    outer radius [A]
    1    0       -24.351522      -662.6386       1.258458
    2    0        -1.095729       -29.8163       4.325857
    2    1        -0.408578       -11.1180       4.487453

  Assembling full basis from fixed parts.
  | Species H :   atomic orbital   1 s accepted.
  | Species H :    hydro orbital   2 s accepted.
  | Species H :    hydro orbital   2 p accepted.
  | Species C :   atomic orbital   1 s accepted.
  | Species C :    hydro orbital   2 s accepted.
  | Species C :   atomic orbital   2 s accepted.
  | Species C :   atomic orbital   2 p accepted.
  | Species C :    hydro orbital   2 p accepted.
  | Species C :    hydro orbital   3 d accepted.
  | Species N :   atomic orbital   1 s accepted.
  | Species N :    hydro orbital   3 s accepted.
  | Species N :   atomic orbital   2 s accepted.
  | Species N :   atomic orbital   2 p accepted.
  | Species N :    hydro orbital   2 p accepted.
  | Species N :    hydro orbital   3 d accepted.
  | Species O :   atomic orbital   1 s accepted.
  | Species O :    hydro orbital   3 s accepted.
  | Species O :   atomic orbital   2 s accepted.
  | Species O :   atomic orbital   2 p accepted.
  | Species O :    hydro orbital   2 p accepted.
  | Species O :    hydro orbital   3 d accepted.
  | Species S :   atomic orbital   1 s accepted.
  | Species S :   atomic orbital   2 s accepted.
  | Species S :    ionic orbital   3 s accepted.
  | Species S :   atomic orbital   3 s accepted.
  | Species S :   atomic orbital   2 p accepted.
  | Species S :   atomic orbital   3 p accepted.
  | Species S :    hydro orbital   2 p accepted.
  | Species S :    ionic orbital   3 d accepted.
  | Species Cl :   atomic orbital   1 s accepted.
  | Species Cl :   atomic orbital   2 s accepted.
  | Species Cl :    ionic orbital   3 s accepted.
  | Species Cl :   atomic orbital   3 s accepted.
  | Species Cl :   atomic orbital   2 p accepted.
  | Species Cl :   atomic orbital   3 p accepted.
  | Species Cl :    hydro orbital   2 p accepted.
  | Species Cl :    ionic orbital   3 d accepted.
  | Species Br :   atomic orbital   1 s accepted.
  | Species Br :   atomic orbital   2 s accepted.
  | Species Br :   atomic orbital   3 s accepted.
  | Species Br :    ionic orbital   4 s accepted.
  | Species Br :   atomic orbital   4 s accepted.
  | Species Br :   atomic orbital   2 p accepted.
  | Species Br :   atomic orbital   3 p accepted.
  | Species Br :   atomic orbital   4 p accepted.
  | Species Br :    hydro orbital   2 p accepted.
  | Species Br :   atomic orbital   3 d accepted.
  | Species Br :    hydro orbital   3 d accepted.
  | Species F :   atomic orbital   1 s accepted.
  | Species F :    hydro orbital   3 s accepted.
  | Species F :   atomic orbital   2 s accepted.
  | Species F :   atomic orbital   2 p accepted.
  | Species F :    hydro orbital   2 p accepted.
  | Species F :    hydro orbital   3 d accepted.
 
  Basis size parameters after reduction:
  | Total number of radial functions:       54
  | Total number of basis functions :      228
 
  Per-task memory consumption for arrays in subroutine allocate_ext:
  |          14.746336MB.
  Testing on-site integration grid accuracy.
  |  Species  Function  <phi|h_atom|phi> (log., in eV)  <phi|h_atom|phi> (rad., in eV)
           1        1                 -6.4663192853                 -6.4651273558
           1        2                 13.7111246313                 13.7170609718
           1        3                 25.2673269279                 25.2674696378
           2        4               -273.1705927641               -273.1705631568
           2        5                -10.7109323383                -10.7107120029
           2        6                 17.4381822266                 17.4352413244
           2        7                 -5.2255326521                 -5.2270484734
           2        8                  8.6835629259                  8.6603288385
           2        9                 27.4952418996                 27.4953360207
           3       10               -384.4424306495               -384.4423701208
           3       11                 12.5842251816                 12.5842222903
           3       12                -15.7264628251                -15.7264433455
           3       13                 -7.0696854293                 -7.0701769954
           3       14                  8.8090390882                  8.7901077751
           3       15                 35.9586762123                 35.9588528632
           4       16               -514.2458688638               -514.2457643834
           4       17                 15.1795651126                 15.1795290741
           4       18                -21.5359799773                -21.5360846186
           4       19                 -9.0283069236                 -9.0284644067
           4       20                  8.3027758564                  8.2834874195
           4       21                 45.8339351984                 45.8338762259
           5       22              -2397.4814915323              -2397.4804563634
           5       23               -210.3479335736               -210.3479265952
           5       24                -16.8079362322                -16.8079092816
           5       25                  7.5772439785                  7.5675998324
           5       26               -156.4102581151               -156.4102580951
           5       27                 -6.9617737483                 -6.9640288036
           5       28                  7.5696988470                  7.5151244831 ***
           5       29                  6.0973034823                  6.0928113248
           6       30              -2740.4481953768              -2740.4469735573
           6       31               -250.9399497423               -250.9399403187
           6       32                -20.2462734235                -20.2462512680
           6       33                  8.9460051782                  8.9510436705
           6       34               -191.5339459398               -191.5339455009
           6       35                 -8.5819075957                 -8.5827488985
           6       36                  8.1339828089                  8.0979459360 ***
           6       37                  7.0302175114                  7.0277664253
           7       38             -13087.7598290693             -13087.7478329055
           7       39              -1681.5175407904              -1681.5173859473
           7       40               -229.5995173340               -229.5995122974
           7       41                -19.1670390573                -19.1670743755
           7       42                  7.4871112365                  7.4757267833
           7       43              -1515.7037065505              -1515.7037046131
           7       44               -171.6047258945               -171.6047247974
           7       45                 -7.8454464509                 -7.8467078958
           7       46                  6.5587540306                  6.5021852833 ***
           7       47                -68.2841112001                -68.2841109020
           7       48                  7.9544527460                  7.9539599801
           8       49               -662.6386223100               -662.6384636792
           8       50                 16.8549240005                 16.8546524575
           8       51                -28.3469495879                -28.3470221482
           8       52                -11.1180143063                -11.1180645761
           8       53                  7.1929383539                  7.1674334735
           8       54                 44.8421512277                 44.8420996915
 * Note: Onsite integrals marked "***" above are less accurate than
 * onsite_accuracy_threshold =    0.03000 eV. Usually, this is harmless.
 * When in doubt, tighten the "radial" and/or "radial_multiplier" flags to check.

  Preparing densities etc. for the partition functions (integrals / Hartree potential).

  Preparations completed.
  max(cpu_time)          :      0.524 s.
  Wall clock time (cpu1) :      0.524 s.
------------------------------------------------------------

------------------------------------------------------------
          Begin self-consistency loop: Initialization.

          Date     :  20191121, Time     :  121754.794
------------------------------------------------------------

  Initializing index lists of integration centers etc. from given atomic structure:
  Mapping all atomic coordinates to central unit cell.

  Initializing the k-points
          Using symmetry for reducing the k-points
  | k-points reduced from:       27 to       14
  | Number of k-points                             :        14
  The eigenvectors in the calculations are COMPLEX.
  | K-points in task   0:         3
  | K-points in task   1:         4
  | K-points in task   2:         4
  | K-points in task   3:         3
  | Number of basis functions in the Hamiltonian integrals :      2608
  | Number of basis functions in a single unit cell        :       228
  | Number of centers in hartree potential         :      1574
  | Number of centers in hartree multipole         :      1018
  | Number of centers in electron density summation:       782
  | Number of centers in basis integrals           :       854
  | Number of centers in integrals                 :       368
  | Number of centers in hamiltonian               :       782
  | Consuming         13 KiB for k_phase.
  | Number of super-cells (origin) [n_cells]                     :         275
  | Number of super-cells (after PM_index) [n_cells]             :          60
  | Number of super-cells in hamiltonian [n_cells_in_hamiltonian]:          60
  | Size of matrix packed + index [n_hamiltonian_matrix_size] :      242517
  | Estimated reciprocal-space cutoff momentum G_max:         2.99165827 bohr^-1 .
  | Reciprocal lattice points for long-range Hartree potential:     868
  Partitioning the integration grid into batches with parallel hashing+maxmin method.
  | Number of batches:     1984
  | Maximal batch size:     129
  | Minimal batch size:      57
  | Average batch size:      63.484
  | Standard deviation of batch sizes:      10.779

  Integration load balanced across     4 MPI tasks.
  Work distribution over tasks is as follows:
  Task     0 has      31508 integration points.
  Task     1 has      31498 integration points.
  Task     2 has      31496 integration points.
  Task     3 has      31450 integration points.
  Initializing partition tables, free-atom densities, potentials, etc. across the integration grid (initialize_grid_storage).
  | initialize_grid_storage: Actual outermost partition radius vs. multipole_radius_free
  | (-- VB: in principle, multipole_radius_free should be larger, hence this output)
  | Species        1: Confinement radius =              4.999999999999999 AA, multipole_radius_free =              5.054417573612229 AA.
  | Species        1: outer_partition_radius set to              5.054417573612229 AA .
  | Species        2: Confinement radius =              4.999999999999999 AA, multipole_radius_free =              5.019602836301480 AA.
  | Species        2: outer_partition_radius set to              5.019602836301480 AA .
  | Species        3: Confinement radius =              4.999999999999999 AA, multipole_radius_free =              5.043624274424571 AA.
  | Species        3: outer_partition_radius set to              5.043624274424571 AA .
  | Species        4: Confinement radius =              4.999999999999999 AA, multipole_radius_free =              5.048384829883283 AA.
  | Species        4: outer_partition_radius set to              5.048384829883283 AA .
  | Species        5: Confinement radius =              4.999999999999999 AA, multipole_radius_free =              5.005414751018925 AA.
  | Species        5: outer_partition_radius set to              5.005414751018925 AA .
  | Species        6: Confinement radius =              4.999999999999999 AA, multipole_radius_free =              5.007919576009533 AA.
  | Species        6: outer_partition_radius set to              5.007919576009533 AA .
  | Species        7: Confinement radius =              4.999999999999999 AA, multipole_radius_free =              5.003611289978384 AA.
  | Species        7: outer_partition_radius set to              5.003611289978384 AA .
  | Species        8: Confinement radius =              4.999999999999999 AA, multipole_radius_free =              5.009370088163274 AA.
  | Species        8: outer_partition_radius set to              5.009370088163274 AA .
  | The sparse table of interatomic distances needs       2267.58 kbyte instead of      5834.53 kbyte of memory.
  | Net number of integration points:   125952
  | of which are non-zero points    :   100788
  | Numerical average free-atom electrostatic potential    :     -6.60783316 eV
  Renormalizing the initial density to the exact electron count on the 3D integration grid.
  | Initial density: Formal number of electrons (from input files) :      84.0000000000
  | Integrated number of electrons on 3D grid     :      83.9982849695
  | Charge integration error                      :      -0.0017150305
  | Normalization factor for density and gradient :       1.0000204174
  Obtaining max. number of non-zero basis functions in each batch (get_n_compute_maxes).
  | Maximal number of non-zero basis functions:      434 in task     0
  | Maximal number of non-zero basis functions:      433 in task     1
  | Maximal number of non-zero basis functions:      430 in task     2
  | Maximal number of non-zero basis functions:      427 in task     3
  Allocating        1.002 MB for KS_eigenvector_complex
  Integrating Hamiltonian matrix: batch-based integration.
  Time summed over all CPUs for integration: real work        4.114 s, elapsed        4.138 s
  Integrating overlap matrix.
  Time summed over all CPUs for integration: real work        2.602 s, elapsed        2.663 s
  Decreasing sparse matrix size:
   Tolerance:  9.999999824516700E-014
   Hamiltonian matrix
  | Array has   189319 nonzero elements out of   242517 elements
  | Sparsity factor is 0.219
   Overlap matrix
  | Array has   175481 nonzero elements out of   242517 elements
  | Sparsity factor is 0.276
  New size of hamiltonian matrix:      189862

  Updating Kohn-Sham eigenvalues and eigenvectors using ELSI and the ELPA eigensolver.
  Singularity check in k-point 4, task 0 (analysis for other k-points/tasks may follow below):
  Overlap matrix is not singular
  | Lowest and highest eigenvalues :  0.9280E-03,  0.8137E+01
  Finished singularity check of overlap matrix
  | Time :     0.006 s
  Finished Cholesky decomposition
  | Time :     0.001 s
  Finished transformation to standard eigenproblem
  | Time :     0.003 s
  Starting LAPACK eigensolver
  Finished solving standard eigenproblem
  | Time :     0.007 s
  Finished back-transformation of eigenvectors
  | Time :     0.001 s

  Obtaining occupation numbers and chemical potential using ELSI.
  | Chemical potential (Fermi level):    -8.58305415 eV
  Writing Kohn-Sham eigenvalues.
  K-point:       1 at    0.000000    0.000000    0.000000 (in units of recip. lattice)

  State    Occupation    Eigenvalue [Ha]    Eigenvalue [eV]
      1       2.00000         -10.154991         -276.33137
      2       2.00000         -10.154991         -276.33136
      3       2.00000         -10.154801         -276.32621
      4       2.00000         -10.154801         -276.32620
      5       2.00000         -10.154792         -276.32594
      6       2.00000         -10.154791         -276.32593
      7       2.00000         -10.154413         -276.31562
      8       2.00000         -10.154412         -276.31562
      9       2.00000         -10.154402         -276.31535
     10       2.00000         -10.154402         -276.31534
     11       2.00000         -10.154213         -276.31019
     12       2.00000         -10.154213         -276.31019
     13       2.00000          -0.991460          -26.97900
     14       2.00000          -0.991153          -26.97064
[...]
  ----------------------------------------------------------------------
  | Atom    15: C
  |   Hirshfeld charge        :     -0.03942448
  |   Free atom volume        :     37.23478229
  |   Hirshfeld volume        :     31.38035867
  |   Hirshfeld dipole vector :      0.00000000       0.02244550       0.00000025
  |   Hirshfeld dipole moment :      0.02244550
  |   Hirshfeld second moments:      0.18885559       0.00000000       0.00000000
  |                                  0.00000000       0.12106982       0.00000007
  |                                  0.00000000       0.00000007       0.09294544
  ----------------------------------------------------------------------
  | Atom    16: C
  |   Hirshfeld charge        :     -0.03933220
  |   Free atom volume        :     37.23478229
  |   Hirshfeld volume        :     31.41854893
  |   Hirshfeld dipole vector :      0.00000000       0.01128458      -0.01944822
  |   Hirshfeld dipole moment :      0.02248500
  |   Hirshfeld second moments:      0.18923176       0.00000000      -0.00000000
  |                                  0.00000000       0.09911790      -0.01080936
  |                                 -0.00000000      -0.01080936       0.11330930
  ----------------------------------------------------------------------
  | Atom    17: C
  |   Hirshfeld charge        :     -0.03933232
  |   Free atom volume        :     37.23478229
  |   Hirshfeld volume        :     31.41854981
  |   Hirshfeld dipole vector :      0.00000000      -0.01128457      -0.01944822
  |   Hirshfeld dipole moment :      0.02248499
  |   Hirshfeld second moments:      0.18923172      -0.00000000      -0.00000000
  |                                 -0.00000000       0.09911787       0.01080936
  |                                 -0.00000000       0.01080936       0.11330929
  ----------------------------------------------------------------------
  | Atom    18: C
  |   Hirshfeld charge        :     -0.03942473
  |   Free atom volume        :     37.23478229
  |   Hirshfeld volume        :     31.38035977
  |   Hirshfeld dipole vector :      0.00000000      -0.02244547       0.00000024
  |   Hirshfeld dipole moment :      0.02244547
  |   Hirshfeld second moments:      0.18885549      -0.00000000       0.00000000
  |                                 -0.00000000       0.12106977      -0.00000008
  |                                  0.00000000      -0.00000008       0.09294541
  ----------------------------------------------------------------------
  | Atom    19: H
  |   Hirshfeld charge        :      0.03855928
  |   Free atom volume        :      9.95071624
  |   Hirshfeld volume        :      6.78274217
  |   Hirshfeld dipole vector :      0.00000000      -0.03674301       0.06979863
  |   Hirshfeld dipole moment :      0.07887901
  |   Hirshfeld second moments:      0.09460113       0.00000000      -0.00000000
  |                                  0.00000000       0.09180710       0.01905813
  |                                 -0.00000000       0.01905813       0.08357136
  ----------------------------------------------------------------------
  | Atom    20: H
  |   Hirshfeld charge        :      0.03855908
  |   Free atom volume        :      9.95071624
  |   Hirshfeld volume        :      6.78274955
  |   Hirshfeld dipole vector :      0.00000000       0.03674281       0.06979838
  |   Hirshfeld dipole moment :      0.07887869
  |   Hirshfeld second moments:      0.09460101      -0.00000000      -0.00000000
  |                                 -0.00000000       0.09180688      -0.01905829
  |                                 -0.00000000      -0.01905829       0.08357108
  ----------------------------------------------------------------------
  | Atom    21: H
  |   Hirshfeld charge        :      0.04080172
  |   Free atom volume        :      9.95071624
  |   Hirshfeld volume        :      6.55329569
  |   Hirshfeld dipole vector :      0.00000000       0.08724901       0.00000005
  |   Hirshfeld dipole moment :      0.08724901
  |   Hirshfeld second moments:      0.09541164       0.00000000       0.00000000
  |                                  0.00000000       0.08542364      -0.00000004
  |                                  0.00000000      -0.00000004       0.10566490
  ----------------------------------------------------------------------
  | Atom    22: H
  |   Hirshfeld charge        :      0.03855923
  |   Free atom volume        :      9.95071624
  |   Hirshfeld volume        :      6.78276034
  |   Hirshfeld dipole vector :      0.00000000       0.03674226      -0.06979834
  |   Hirshfeld dipole moment :      0.07887840
  |   Hirshfeld second moments:      0.09460053      -0.00000000       0.00000000
  |                                 -0.00000000       0.09180652       0.01905833
  |                                  0.00000000       0.01905833       0.08357082
  ----------------------------------------------------------------------
  | Atom    23: H
  |   Hirshfeld charge        :      0.03855921
  |   Free atom volume        :      9.95071624
  |   Hirshfeld volume        :      6.78276104
  |   Hirshfeld dipole vector :      0.00000000      -0.03674224      -0.06979832
  |   Hirshfeld dipole moment :      0.07887837
  |   Hirshfeld second moments:      0.09460052       0.00000000       0.00000000
  |                                  0.00000000       0.09180650      -0.01905835
  |                                  0.00000000      -0.01905835       0.08357079
  ----------------------------------------------------------------------
  | Atom    24: H
  |   Hirshfeld charge        :      0.04080170
  |   Free atom volume        :      9.95071624
  |   Hirshfeld volume        :      6.55329573
  |   Hirshfeld dipole vector :      0.00000000      -0.08724901       0.00000005
  |   Hirshfeld dipole moment :      0.08724901
  |   Hirshfeld second moments:      0.09541163      -0.00000000       0.00000000
  |                                 -0.00000000       0.08542363       0.00000003
  |                                  0.00000000       0.00000003       0.10566490
  ----------------------------------------------------------------------

  Converging periodic supercell size for vdw calculation.
  Convergence accuracy (and time!) can be adjusted using the vdw_convergence_threshold keyword.
  | Shell number:     1
  |   VDW energy change:  -0.962622E+00 eV.
  |   Not converged.
  | Shell number:     2
  |   VDW energy change:  -0.723498E-01 eV.
  |   Not converged.
  | Shell number:     3
  |   VDW energy change:  -0.135580E-01 eV.
  |   Not converged.
  | Shell number:     4
  |   VDW energy change:  -0.425841E-02 eV.
  |   Not converged.
  | Shell number:     5
  |   VDW energy change:  -0.174164E-02 eV.
  |   Not converged.
  | Shell number:     6
  |   VDW energy change:  -0.839438E-03 eV.
  |   Not converged.
  | Shell number:     7
  |   VDW energy change:  -0.452969E-03 eV.
  |   Not converged.
  | Shell number:     8
  |   VDW energy change:  -0.265471E-03 eV.
  |   Not converged.
  | Shell number:     9
  |   VDW energy change:  -0.165711E-03 eV.
  |   Not converged.
  | Shell number:    10
  |   VDW energy change:  -0.108713E-03 eV.
  |   Not converged.
  | Shell number:    11
  |   VDW energy change:  -0.742474E-04 eV.
  |   Not converged.
  | Shell number:    12
  |   VDW energy change:  -0.524210E-04 eV.
  |   Not converged.
  | Shell number:    13
  |   VDW energy change:  -0.380574E-04 eV.
  |   Not converged.
  | Shell number:    14
  |   VDW energy change:  -0.282935E-04 eV.
  |   Not converged.
  | Shell number:    15
  |   VDW energy change:  -0.214696E-04 eV.
  |   Not converged.
  | Shell number:    16
  |   VDW energy change:  -0.165844E-04 eV.
  |   Not converged.
  | Shell number:    17
  |   VDW energy change:  -0.130130E-04 eV.
  |   Not converged.
  | Shell number:    18
  |   VDW energy change:  -0.103532E-04 eV.
  |   Not converged.
  | Shell number:    19
  |   VDW energy change:  -0.833962E-05 eV.
  |   Not converged.
  | Shell number:    20
  |   VDW energy change:  -0.679260E-05 eV.
  |   Not converged.
  | Shell number:    21
  |   VDW energy change:  -0.558824E-05 eV.
  |   Not converged.
  | Shell number:    22
  |   VDW energy change:  -0.463936E-05 eV.
  |   Not converged.
  | Shell number:    23
  |   VDW energy change:  -0.388360E-05 eV.
  |   Not converged.
  | Shell number:    24
  |   VDW energy change:  -0.327566E-05 eV.
  |   Not converged.
  | Shell number:    25
  |   VDW energy change:  -0.278216E-05 eV.
  |   Not converged.
  | Shell number:    26
  |   VDW energy change:  -0.237819E-05 eV.
  |   Not converged.
  | Shell number:    27
  |   VDW energy change:  -0.204495E-05 eV.
  |   Not converged.
  | Shell number:    28
  |   VDW energy change:  -0.176809E-05 eV.
  |   Not converged.
  | Shell number:    29
  |   VDW energy change:  -0.153654E-05 eV.
  |   Not converged.
  | Shell number:    30
  |   VDW energy change:  -0.134168E-05 eV.
  |   Not converged.
  | Shell number:    31
  |   VDW energy change:  -0.117675E-05 eV.
  |   Not converged.
  | Shell number:    32
  |   VDW energy change:  -0.103641E-05 eV.
  |   Not converged.
  | Shell number:    33
  |   VDW energy change:  -0.916378E-06 eV.
  |   Converged.

  Total energy components:
  | Sum of eigenvalues            :        -268.09964882 Ha       -7295.36262826 eV
  | XC energy correction          :         -69.02714467 Ha       -1878.32417443 eV
  | XC potential correction       :          88.67943892 Ha        2413.09030967 eV
  | Free-atom electrostatic energy:        -202.27255029 Ha       -5504.11613963 eV
  | Hartree energy correction     :         -13.25367920 Ha        -360.65096088 eV
  | vdW energy correction         :          -0.04478444 Ha          -1.21864666 eV
  | Entropy correction            :          -0.00000000 Ha          -0.00000000 eV
  | ---------------------------
  | Total energy                  :        -464.01836850 Ha      -12626.58224019 eV
  | Total energy, T -> 0          :        -464.01836850 Ha      -12626.58224019 eV  <-- do not rely on this value for anything but (periodic) metals
  | Electronic free energy        :        -464.01836850 Ha      -12626.58224019 eV

  Derived energy quantities:
  | Kinetic energy                :         462.42434750 Ha       12583.20672185 eV
  | Electrostatic energy          :        -857.37078688 Ha      -23330.24614095 eV
  | Energy correction for multipole
  | error in Hartree potential    :           0.15845895 Ha           4.31188742 eV
  | Sum of eigenvalues per atom                           :        -303.97344284 eV
  | Total energy (T->0) per atom                          :        -526.10759334 eV  <-- do not rely on this value for anything but (periodic) metals
  | Electronic free energy per atom                       :        -526.10759334 eV
  Timings for VdW correction (Tkatchenko-Scheffler 2009 or later):
  | CPU time:        3.844 s, Wall clock time:        3.843 s.

  Energy and forces in a compact form:
  | Total energy uncorrected      :         -0.126265822401870E+05 eV
  | Total energy corrected        :         -0.126265822401870E+05 eV  <-- do not rely on this value for anything but (periodic) metals
  | Electronic free energy        :         -0.126265822401870E+05 eV

  ------------------------------------ 
  Start decomposition of the XC Energy 
  ------------------------------------ 
  X and C from original XC functional choice 
  Hartree-Fock Energy :          0.000000000 Ha              0.000000000 eV
  X Energy            :        -66.243037145 Ha          -1802.564754204 eV
  C Energy            :         -2.784107520 Ha            -75.759420228 eV
  Total XC Energy     :        -69.027144666 Ha          -1878.324174432 eV
  ------------------------------------ 
  LDA X and C from self-consistent density 
  X Energy LDA        :        -59.995548356 Ha          -1632.561934610 eV
  C Energy LDA        :         -5.351845670 Ha           -145.631130322 eV
  ------------------------------------ 
  End decomposition of the XC Energy 
  ------------------------------------ 

------------------------------------------------------------
  |------------------------------------------------------
  | Final ELSI Output
  |------------------------------------------------------
  |
  | Physical Properties
  |   Number of electrons       :        0.84000000E+02
  |   Number of states          :                    96
  |
  | Matrix Properties
  |   Matrix format             :           BLACS_DENSE
  |   Number of basis functions :                   228
  |
  | Computational Details
  |   Parallel mode             :           SINGLE_PROC
  |   Solver requested          :                  ELPA
  |   Number of ELSI calls      :                    36
  |
  |------------------------------------------------------
  | ELSI Project (c)  elsi-interchange.org
  |------------------------------------------------------

------------------------------------------------------------------------------
  Final output of selected total energy values:

  The following output summarizes some interesting total energy values
  at the end of a run (AFTER all relaxation, molecular dynamics, etc.).

  | Total energy of the DFT / Hartree-Fock s.c.f. calculation      :         -12626.582240187 eV
  | Final zero-broadening corrected energy (caution - metals only) :         -12626.582240187 eV
  | For reference only, the value of 1 Hartree used in FHI-aims is :             27.211384500 eV
  | For reference only, the overall average (free atom contribution
  | + realspace contribution) of the electrostatic potential after
  | s.c.f. convergence is                                          :             -5.632016247 eV

  Before relying on these values, please be sure to understand exactly which
  total energy value is referred to by a given number. Different objects may
  all carry the same name 'total energy'. Definitions:

  Total energy of the DFT / Hartree-Fock s.c.f. calculation:
  | Note that this energy does not include ANY quantities calculated after the
  | s.c.f. cycle, in particular not ANY RPA, MP2, etc. many-body perturbation terms.

  Final zero-broadening corrected energy:
  | For metallic systems only, a broadening of the occupation numbers at the Fermi
  | level can be extrapolated back to zero broadening by an electron-gas inspired
  | formula. For all systems that are not real metals, this value can be
  | meaningless and should be avoided.

------------------------------------------------------------------------------
  Methods described in the following list of references were used in this FHI-aims run.
  If you publish the results, please make sure to cite these reference if they apply.
  FHI-aims is an academic code, and for our developers (often, Ph.D. students
  and postdocs), scientific credit in the community is essential.
  Thank you for helping us!

  For any use of FHI-aims, please cite:

    Volker Blum, Ralf Gehrke, Felix Hanke, Paula Havu, Ville Havu,
    Xinguo Ren, Karsten Reuter, and Matthias Scheffler
    'Ab initio molecular simulations with numeric atom-centered orbitals'
    Computer Physics Communications 180, 2175-2196 (2009)
    http://dx.doi.org/10.1016/j.cpc.2009.06.022


  The provided symmetry information was generated with SPGlib:

    Atsushi Togo, Yusuke Seto, Dimitar Pashov
    SPGlib 1.7.3 obtained from http://spglib.sourceforge.net
    Copyright (C) 2008 Atsushi Togo


  The scalable eigensolver library ELPA was used in your run.
  ELPA is essential especially for large systems on hundreds or thousands of CPUs.
  For ELPA, please cite:

    Andreas Marek, Volker Blum, Rainer Johanni, Ville Havu, Bruno Lang,
    Thomas Auckenthaler, Alexander Heinecke, Hans-Joachim Bungartz, and Hermann Lederer,
    'The ELPA Library - Scalable Parallel Eigenvalue Solutions
    for Electronic Structure Theory and Computational Science'
    The Journal of Physics: Condensed Matter 26, 213201 (2014).
    http://dx.doi.org/10.1088/0953-8984/26/21/213201


  The ELSI infrastructure was used in your run to solve the Kohn-Sham electronic structure.
  Please check out http://elsi-interchange.org to learn more.
  If scalability is important for your project, please acknowledge ELSI by citing:

    V. W-z. Yu, F. Corsetti, A. Garcia, W. P. Huhn, M. Jacquelin, W. Jia,
    B. Lange, L. Lin, J. Lu, W. Mi, A. Seifitokaldani, A. Vazquez-Mayagoitia,
    C. Yang, H. Yang, and V. Blum
    'ELSI: A unified software interface for Kohn-Sham electronic structure solvers'
    Computer Physics Communications 222, 267-285 (2018).
    http://dx.doi.org/10.1016/j.cpc.2017.09.007


  For the real-space grid partitioning and parallelization used in this calculation, please cite:

    Ville Havu, Volker Blum, Paula Havu, and Matthias Scheffler,
    'Efficient O(N) integration for all-electron electronic structure calculation'
    'using numerically tabulated basis functions'
    Journal of Computational Physics 228, 8367-8379 (2009).
    http://dx.doi.org/10.1016/j.jcp.2009.08.008

  Of course, there are many other important community references, e.g., those cited in the
  above references. Our list is limited to references that describe implementations in the
  FHI-aims code. The reason is purely practical (length of this list) - please credit others as well.

------------------------------------------------------------
          Leaving FHI-aims.
          Date     :  20191121, Time     :  121910.842

          Computational steps:
          | Number of self-consistency cycles          :           11
          | Number of SCF (re)initializations          :            1

          Detailed time accounting                     :  max(cpu_time)    wall_clock(cpu1)
          | Total time                                 :       76.592 s          76.591 s
          | Preparation time                           :        0.524 s           0.524 s
          | Boundary condition initalization           :        0.146 s           0.146 s
          | Grid partitioning                          :        0.229 s           0.228 s
          | Preloading free-atom quantities on grid    :        0.010 s           0.010 s
          | Free-atom superposition energy             :        0.313 s           0.313 s
          | Total time for integrations                :       13.259 s          13.261 s
          | Total time for solution of K.-S. equations :        0.667 s           0.664 s
          | Total time for density update              :       15.875 s          15.871 s
          | Total time for mixing & preconditioning    :       17.019 s          17.019 s
          | Total time for Hartree multipole update    :        0.048 s           0.049 s
          | Total time for Hartree multipole sum       :       22.014 s          22.011 s
          | Total time for total energy evaluation     :        0.001 s           0.001 s
          | Total time for vdW correction              :        3.844 s           3.843 s

          Partial memory accounting:
          | Residual value for overall tracked memory usage across tasks:     0.000000 MB (should be 0.000000 MB)
          | Peak values for overall tracked memory usage:
          |   Minimum:        8.540 MB (on task 3 after allocating gradient_basis_wave)
          |   Maximum:        8.949 MB (on task 1 after allocating gradient_basis_wave)
          |   Average:        8.757 MB
          | Largest tracked array allocation:
          |   Minimum:        1.850 MB (overlap_matrix on task 0)
          |   Maximum:        1.850 MB (overlap_matrix on task 0)
          |   Average:        1.850 MB
          Note:  These values currently only include a subset of arrays which are explicitly tracked.
          The "true" memory usage will be greater.

          Have a nice day.
------------------------------------------------------------
